# vtk DataFile Version 3.0
vtk output
ASCII
DATASET UNSTRUCTURED_GRID
POINTS 13336 double
1.522496e-01	-4.784638e-03	0.0	1.520618e-01	-7.171055e-03	0.0	1.517991e-01	-9.550397e-03	0.0	1.514619e-01	-1.192033e-02	0.0	1.510503e-01	-1.427851e-02	0.0	1.505649e-01	-1.662265e-02	0.0	1.500060e-01	-1.895047e-02	0.0	1.493744e-01	-2.125973e-02	0.0	1.486705e-01	-2.354819e-02	0.0	1.478951e-01	-2.581370e-02	0.0	1.470490e-01	-2.805411e-02	0.0	1.461329e-01	-3.026730e-02	0.0	1.451478e-01	-3.245122e-02	0.0	1.440947e-01	-3.460379e-02	0.0	1.429746e-01	-3.672296e-02	0.0	1.417885e-01	-3.880667e-02	0.0	1.405378e-01	-4.085285e-02	0.0	1.392235e-01	-4.285941e-02	0.0	1.378471e-01	-4.482423e-02	0.0	1.364098e-01	-4.674519e-02	0.0	1.349131e-01	-4.862018e-02	0.0	1.333585e-01	-5.044703e-02	0.0	1.317474e-01	-5.222369e-02	0.0	1.300815e-01	-5.394810e-02	0.0	1.283625e-01	-5.561831e-02	0.0	1.265920e-01	-5.723249e-02	0.0	1.247717e-01	-5.878890e-02	0.0	1.229035e-01	-6.028597e-02	0.0	1.209892e-01	-6.172222e-02	0.0	1.190308e-01	-6.309634e-02	0.0	1.170300e-01	-6.440713e-02	0.0	1.149890e-01	-6.565347e-02	0.0	1.129096e-01	-6.683439e-02	0.0	1.107941e-01	-6.794896e-02	0.0	1.086444e-01	-6.899628e-02	0.0	1.064627e-01	-6.997554e-02	0.0	1.042511e-01	-7.088594e-02	0.0	1.020118e-01	-7.172675e-02	0.0	9.974709e-02	-7.249720e-02	0.0	9.745913e-02	-7.319660e-02	0.0	9.515016e-02	-7.382429e-02	0.0	9.282251e-02	-7.437967e-02	0.0	9.047844e-02	-7.486215e-02	0.0	8.812030e-02	-7.527125e-02	0.0	8.575039e-02	-7.560650e-02	0.0	8.337106e-02	-7.586750e-02	0.0	8.098465e-02	-7.605398e-02	0.0	7.859350e-02	-7.616568e-02	0.0	7.620000e-02	-7.620244e-02	0.0	7.380650e-02	-7.616421e-02	0.0	7.141536e-02	-7.605096e-02	0.0	6.902894e-02	-7.586278e-02	0.0	6.664961e-02	-7.559982e-02	0.0	6.427970e-02	-7.526234e-02	0.0	6.192154e-02	-7.485062e-02	0.0	5.957749e-02	-7.436509e-02	0.0	5.724984e-02	-7.380620e-02	0.0	5.494087e-02	-7.317450e-02	0.0	5.265291e-02	-7.247058e-02	0.0	5.038816e-02	-7.169516e-02	0.0	4.814891e-02	-7.084899e-02	0.0	4.593734e-02	-6.993292e-02	0.0	4.375562e-02	-6.894783e-02	0.0	4.160592e-02	-6.789471e-02	0.0	3.949038e-02	-6.677457e-02	0.0	3.741105e-02	-6.558854e-02	0.0	3.537000e-02	-6.433779e-02	0.0	3.336925e-02	-6.302354e-02	0.0	3.141077e-02	-6.164710e-02	0.0	2.949649e-02	-6.020981e-02	0.0	2.762829e-02	-5.871310e-02	0.0	2.580804e-02	-5.715846e-02	0.0	2.403752e-02	-5.554741e-02	0.0	2.231846e-02	-5.388154e-02	0.0	2.065259e-02	-5.216250e-02	0.0	1.904154e-02	-5.039196e-02	0.0	1.748689e-02	-4.857171e-02	0.0	1.599019e-02	-4.670351e-02	0.0	1.455291e-02	-4.478923e-02	0.0	1.317646e-02	-4.283076e-02	0.0	1.186221e-02	-4.083000e-02	0.0	1.061146e-02	-3.878896e-02	0.0	9.425431e-03	-3.670962e-02	0.0	8.305303e-03	-3.459407e-02	0.0	7.252178e-03	-3.244437e-02	0.0	6.267098e-03	-3.026266e-02	0.0	5.351032e-03	-2.805110e-02	0.0	4.504886e-03	-2.581184e-02	0.0	3.729493e-03	-2.354710e-02	0.0	3.025622e-03	-2.125913e-02	0.0	2.393963e-03	-1.895016e-02	0.0	1.835143e-03	-1.662251e-02	0.0	1.349712e-03	-1.427846e-02	0.0	9.381485e-04	-1.192031e-02	0.0	6.008597e-04	-9.550393e-03	0.0	3.381784e-04	-7.171054e-03	0.0	1.503633e-04	-4.784638e-03	0.0	3.760013e-05	-2.393500e-03	0.0	0.000000e+00	1.524000e-11	0.0	3.760013e-05	2.393500e-03	0.0	1.503633e-04	4.784638e-03	0.0	3.381784e-04	7.171054e-03	0.0	6.008597e-04	9.550393e-03	0.0	9.381485e-04	1.192031e-02	0.0	1.349712e-03	1.427846e-02	0.0	1.835143e-03	1.662251e-02	0.0	2.393963e-03	1.895016e-02	0.0	3.025622e-03	2.125913e-02	0.0	3.729493e-03	2.354710e-02	0.0	4.504886e-03	2.581184e-02	0.0	5.351032e-03	2.805110e-02	0.0	6.267098e-03	3.026266e-02	0.0	7.252178e-03	3.244437e-02	0.0	8.305303e-03	3.459407e-02	0.0	9.425431e-03	3.670962e-02	0.0	1.061146e-02	3.878896e-02	0.0	1.186221e-02	4.083000e-02	0.0	1.317646e-02	4.283076e-02	0.0	1.455291e-02	4.478923e-02	0.0	1.599019e-02	4.670351e-02	0.0	1.748689e-02	4.857171e-02	0.0	1.904154e-02	5.039196e-02	0.0	2.065259e-02	5.216250e-02	0.0	2.231846e-02	5.388154e-02	0.0	2.403752e-02	5.554741e-02	0.0	2.580804e-02	5.715846e-02	0.0	2.762829e-02	5.871310e-02	0.0	2.949649e-02	6.020981e-02	0.0	3.141077e-02	6.164710e-02	0.0	3.336925e-02	6.302354e-02	0.0	3.537000e-02	6.433779e-02	0.0	3.741105e-02	6.558854e-02	0.0	3.949038e-02	6.677456e-02	0.0	4.160592e-02	6.789470e-02	0.0	4.375562e-02	6.894782e-02	0.0	4.593734e-02	6.993290e-02	0.0	4.814891e-02	7.084896e-02	0.0	5.038816e-02	7.169512e-02	0.0	5.265291e-02	7.247051e-02	0.0	5.494087e-02	7.317439e-02	0.0	5.724984e-02	7.380604e-02	0.0	5.957749e-02	7.436486e-02	0.0	6.192154e-02	7.485029e-02	0.0	6.427970e-02	7.526186e-02	0.0	6.664961e-02	7.559915e-02	0.0	6.902894e-02	7.586183e-02	0.0	7.141536e-02	7.604964e-02	0.0	7.380650e-02	7.616240e-02	0.0	7.620000e-02	7.620000e-02	0.0	7.859350e-02	7.616240e-02	0.0	8.098465e-02	7.604964e-02	0.0	8.337106e-02	7.586183e-02	0.0	8.575039e-02	7.559915e-02	0.0	8.812030e-02	7.526186e-02	0.0	9.047844e-02	7.485029e-02	0.0	9.282251e-02	7.436486e-02	0.0	9.515016e-02	7.380604e-02	0.0	9.745913e-02	7.317439e-02	0.0	9.974709e-02	7.247051e-02	0.0	1.020118e-01	7.169512e-02	0.0	1.042511e-01	7.084896e-02	0.0	1.064627e-01	6.993290e-02	0.0	1.086444e-01	6.894782e-02	0.0	1.107941e-01	6.789470e-02	0.0	1.129096e-01	6.677456e-02	0.0	1.149890e-01	6.558854e-02	0.0	1.170300e-01	6.433779e-02	0.0	1.190308e-01	6.302354e-02	0.0	1.209892e-01	6.164710e-02	0.0	1.229035e-01	6.020981e-02	0.0	1.247717e-01	5.871310e-02	0.0	1.265920e-01	5.715846e-02	0.0	1.283625e-01	5.554741e-02	0.0	1.300815e-01	5.388154e-02	0.0	1.317474e-01	5.216250e-02	0.0	1.333585e-01	5.039196e-02	0.0	1.349131e-01	4.857171e-02	0.0	1.364098e-01	4.670351e-02	0.0	1.378471e-01	4.478923e-02	0.0	1.392235e-01	4.283076e-02	0.0	1.405378e-01	4.083000e-02	0.0	1.417885e-01	3.878896e-02	0.0	1.429746e-01	3.670962e-02	0.0	1.440947e-01	3.459407e-02	0.0	1.451478e-01	3.244437e-02	0.0	1.461329e-01	3.026266e-02	0.0	1.470490e-01	2.805110e-02	0.0	1.478951e-01	2.581184e-02	0.0	1.486705e-01	2.354710e-02	0.0	1.493744e-01	2.125913e-02	0.0	1.500060e-01	1.895016e-02	0.0	1.505649e-01	1.662251e-02	0.0	1.510503e-01	1.427846e-02	0.0	1.514619e-01	1.192031e-02	0.0	1.517991e-01	9.550393e-03	0.0	1.520618e-01	7.171054e-03	0.0	1.522496e-01	4.784638e-03	0.0	1.523624e-01	2.393500e-03	0.0	1.524000e-01	1.524000e-11	0.0	1.523624e-01	-2.393500e-03	0.0	2.257852e+00	3.576096e-01	0.0	2.174108e+00	7.064136e-01	0.0	2.036841e+00	1.037823e+00	0.0	1.849420e+00	1.343677e+00	0.0	1.616446e+00	1.616446e+00	0.0	1.343677e+00	1.849420e+00	0.0	1.037823e+00	2.036841e+00	0.0	7.064136e-01	2.174108e+00	0.0	3.576096e-01	2.257852e+00	0.0	0.000000e+00	2.286000e+00	0.0	-3.576096e-01	2.257852e+00	0.0	-7.064136e-01	2.174108e+00	0.0	-1.037823e+00	2.036841e+00	0.0	-1.343677e+00	1.849420e+00	0.0	-1.616446e+00	1.616446e+00	0.0	-1.849420e+00	1.343677e+00	0.0	-2.036841e+00	1.037823e+00	0.0	-2.174108e+00	7.064136e-01	0.0	-2.257852e+00	3.576096e-01	0.0	-2.286000e+00	0.000000e+00	0.0	-2.257852e+00	-3.576096e-01	0.0	-2.174108e+00	-7.064136e-01	0.0	-2.036841e+00	-1.037823e+00	0.0	-1.849420e+00	-1.343677e+00	0.0	-1.616446e+00	-1.616446e+00	0.0	-1.343677e+00	-1.849420e+00	0.0	-1.037823e+00	-2.036841e+00	0.0	-7.064136e-01	-2.174108e+00	0.0	-3.576096e-01	-2.257852e+00	0.0	0.000000e+00	-2.286000e+00	0.0	3.576096e-01	-2.257852e+00	0.0	7.064136e-01	-2.174108e+00	0.0	1.037823e+00	-2.036841e+00	0.0	1.343677e+00	-1.849420e+00	0.0	1.616446e+00	-1.616446e+00	0.0	1.849420e+00	-1.343677e+00	0.0	2.036841e+00	-1.037823e+00	0.0	2.174108e+00	-7.064136e-01	0.0	2.257852e+00	-3.576096e-01	0.0	2.286000e+00	0.000000e+00	0.0	1.476768e-01	3.227304e-02	0.0	1.529960e-01	1.590373e-02	0.0	1.546159e-01	-1.231785e-03	0.0	4.170138e-02	7.042046e-02	0.0	1.252341e-01	6.120456e-02	0.0	1.430683e-01	4.097695e-02	0.0	8.480536e-02	7.794654e-02	0.0	1.325204e-01	-5.463817e-02	0.0	3.522731e-02	6.686135e-02	0.0	1.252343e-01	-6.127798e-02	0.0	1.084687e-01	-7.151965e-02	0.0	2.342472e-02	5.799928e-02	0.0	1.529966e-01	-1.590395e-02	0.0	1.443250e-01	-3.887311e-02	0.0	1.543845e-01	-6.153184e-03	0.0	1.403660e-01	-4.512686e-02	0.0	1.518467e-01	-2.069521e-02	0.0	9.689054e-02	-7.566291e-02	0.0	1.495623e-01	2.772135e-02	0.0	1.342054e-01	5.278089e-02	0.0	7.250506e-02	-7.833406e-02	0.0	6.029733e-02	-7.678934e-02	0.0	1.500182e-02	-4.902893e-02	0.0	7.004652e-02	-7.817903e-02	0.0	9.450460e-02	-7.627206e-02	0.0	8.480368e-02	-7.795391e-02	0.0	1.062078e-01	-7.249282e-02	0.0	1.171739e-01	-6.693216e-02	0.0	2.342468e-02	-5.799923e-02	0.0	4.619069e-02	-7.244842e-02	0.0	5.079898e-02	-7.418964e-02	0.0	3.522721e-02	-6.686129e-02	0.0	8.235128e-02	-7.818430e-02	0.0	6.271710e-02	-7.725112e-02	0.0	3.950638e-02	-6.930189e-02	0.0	2.911744e-02	-6.270796e-02	0.0	4.392972e-02	-7.147036e-02	0.0	5.314177e-02	-7.495109e-02	0.0	2.527273e-02	-5.962805e-02	0.0	4.170124e-02	-7.042041e-02	0.0	5.550707e-02	-7.563958e-02	0.0	3.314709e-02	-6.554160e-02	0.0	1.657233e-02	-5.092676e-02	0.0	1.988789e-02	-5.457015e-02	0.0	9.340193e-03	-4.097170e-02	0.0	1.204500e-02	-4.508884e-02	0.0	8.724761e-02	-7.764712e-02	0.0	2.162969e-02	-5.631212e-02	0.0	2.847856e-03	-2.771744e-02	0.0	3.754324e-03	-3.000796e-02	0.0	5.781798e-03	-3.449749e-02	0.0	4.848119e-02	-7.335514e-02	0.0	8.968095e-02	-7.726599e-02	0.0	6.900068e-03	-3.669239e-02	0.0	1.066033e-02	-4.305147e-02	0.0	2.717095e-02	-6.119813e-02	0.0	1.150532e-01	-6.818224e-02	0.0	1.252466e-03	-2.305685e-02	0.0	1.039173e-01	-7.339480e-02	0.0	-4.777202e-05	-1.830545e-02	0.0	-5.847881e-04	-1.590135e-02	0.0	3.734768e-02	-6.811514e-02	0.0	6.514992e-02	-7.763858e-02	0.0	-1.972508e-03	-6.152300e-03	0.0	-1.431510e-03	-1.104859e-02	0.0	1.349285e-02	-4.708180e-02	0.0	-2.126854e-03	-3.693792e-03	0.0	2.013631e-03	-2.539965e-02	0.0	-2.126854e-03	3.693807e-03	0.0	-1.046185e-03	-1.348160e-02	0.0	1.820156e-02	-5.277444e-02	0.0	-1.046185e-03	1.348162e-02	0.0	3.314717e-02	6.554166e-02	0.0	-1.740386e-03	8.604704e-03	0.0	5.651079e-04	2.069137e-02	0.0	-5.847884e-04	1.590137e-02	0.0	5.651072e-04	-2.069134e-02	0.0	2.013634e-03	2.539967e-02	0.0	-1.740386e-03	-8.604687e-03	0.0	2.847860e-03	2.771746e-02	0.0	3.754329e-03	3.000799e-02	0.0	8.085887e-03	-3.885157e-02	0.0	5.781806e-03	3.449753e-02	0.0	9.340204e
[...]
POINT_DATA 13336

SCALARS Density double 1
LOOKUP_TABLE default
1.246506e+00	1.246343e+00	1.246048e+00	1.245573e+00	1.244891e+00	1.243993e+00	1.242888e+00	1.241565e+00	1.240035e+00	1.238308e+00	1.236398e+00	1.234311e+00	1.232062e+00	1.229672e+00	1.227146e+00	1.224499e+00	1.221738e+00	1.218880e+00	1.215932e+00	1.212913e+00	1.209795e+00	1.206649e+00	1.203444e+00	1.199957e+00	1.197079e+00	1.193677e+00	1.190506e+00	1.187278e+00	1.184075e+00	1.180928e+00	1.177857e+00	1.174887e+00	1.172024e+00	1.169278e+00	1.166665e+00	1.164181e+00	1.161845e+00	1.159665e+00	1.157657e+00	1.155782e+00	1.154080e+00	1.152551e+00	1.151205e+00	1.150043e+00	1.149071e+00	1.148296e+00	1.147729e+00	1.147388e+00	1.147240e+00	1.147554e+00	1.148079e+00	1.148721e+00	1.149477e+00	1.150411e+00	1.151545e+00	1.152883e+00	1.154416e+00	1.156136e+00	1.158045e+00	1.160098e+00	1.162313e+00	1.164672e+00	1.167167e+00	1.169776e+00	1.172507e+00	1.175327e+00	1.178246e+00	1.181224e+00	1.184270e+00	1.187345e+00	1.190479e+00	1.193534e+00	1.196977e+00	1.200096e+00	1.203543e+00	1.206644e+00	1.209864e+00	1.212936e+00	1.215952e+00	1.218901e+00	1.221768e+00	1.224540e+00	1.227215e+00	1.229770e+00	1.232202e+00	1.234503e+00	1.236666e+00	1.238682e+00	1.240547e+00	1.242245e+00	1.243780e+00	1.245140e+00	1.246333e+00	1.247345e+00	1.248135e+00	1.248609e+00	1.248857e+00	1.249880e+00	1.249120e+00	1.248705e+00	1.249392e+00	1.249212e+00	1.247554e+00	1.247256e+00	1.246246e+00	1.245069e+00	1.243706e+00	1.242169e+00	1.240470e+00	1.238602e+00	1.236582e+00	1.234417e+00	1.232111e+00	1.229676e+00	1.227118e+00	1.224440e+00	1.221664e+00	1.218797e+00	1.215847e+00	1.212825e+00	1.209725e+00	1.206500e+00	1.203660e+00	1.200205e+00	1.196532e+00	1.193749e+00	1.190375e+00	1.187215e+00	1.184127e+00	1.181088e+00	1.178107e+00	1.175198e+00	1.172369e+00	1.169635e+00	1.167020e+00	1.164519e+00	1.162156e+00	1.159938e+00	1.157875e+00	1.155975e+00	1.154255e+00	1.152718e+00	1.151377e+00	1.150241e+00	1.149299e+00	1.148518e+00	1.147994e+00	1.147377e+00	1.147105e+00	1.147285e+00	1.147626e+00	1.148159e+00	1.149013e+00	1.149972e+00	1.151137e+00	1.152492e+00	1.154043e+00	1.155764e+00	1.157656e+00	1.159724e+00	1.161973e+00	1.164350e+00	1.166857e+00	1.169500e+00	1.172260e+00	1.175110e+00	1.178070e+00	1.181108e+00	1.184203e+00	1.187344e+00	1.190510e+00	1.193754e+00	1.196515e+00	1.199727e+00	1.203062e+00	1.206301e+00	1.209463e+00	1.212594e+00	1.215643e+00	1.218619e+00	1.221513e+00	1.224305e+00	1.226984e+00	1.229542e+00	1.231966e+00	1.234233e+00	1.236344e+00	1.238281e+00	1.240025e+00	1.241571e+00	1.242910e+00	1.244033e+00	1.244934e+00	1.245620e+00	1.246105e+00	1.246403e+00	1.246617e+00	1.245526e+00	1.238313e+00	1.246591e+00	1.225041e+00	1.225030e+00	1.225012e+00	1.224989e+00	1.224962e+00	1.224933e+00	1.224907e+00	1.224887e+00	1.224876e+00	1.224876e+00	1.224890e+00	1.224915e+00	1.224944e+00	1.224976e+00	1.225008e+00	1.225037e+00	1.225061e+00	1.225078e+00	1.225089e+00	1.225093e+00	1.225090e+00	1.225080e+00	1.225062e+00	1.225039e+00	1.225011e+00	1.224980e+00	1.224949e+00	1.224919e+00	1.224896e+00	1.224882e+00	1.224882e+00	1.224892e+00	1.224911e+00	1.224937e+00	1.224966e+00	1.224993e+00	1.225015e+00	1.225032e+00	1.225044e+00	1.224959e+00	1.234120e+00	1.244713e+00	1.247174e+00	1.172826e+00	1.192379e+00	1.224585e+00	1.154308e+00	1.204583e+00	1.180772e+00	1.192399e+00	1.170444e+00	1.198451e+00	1.244671e+00	1.227243e+00	1.246487e+00	1.219289e+00	1.242622e+00	1.160333e+00	1.238054e+00	1.207594e+00	1.153516e+00	1.157537e+00	1.213429e+00	1.153859e+00	1.158808e+00	1.154514e+00	1.168149e+00	1.180757e+00	1.198511e+00	1.168250e+00	1.164040e+00	1.180927e+00	1.153924e+00	1.156359e+00	1.175544e+00	1.189543e+00	1.170560e+00	1.162161e+00	1.195515e+00	1.172990e+00	1.160447e+00	1.183740e+00	1.210497e+00	1.204563e+00	1.224549e+00	1.219135e+00	1.155303e+00	1.201537e+00	1.238276e+00	1.236299e+00	1.231950e+00	1.166072e+00	1.156291e+00	1.229593e+00	1.221883e+00	1.192506e+00	1.178028e+00	1.241798e+00	1.165986e+00	1.244702e+00	1.245911e+00	1.178189e+00	1.155365e+00	1.249083e+00	1.247833e+00	1.216315e+00	1.249495e+00	1.240111e+00	1.249475e+00	1.246958e+00	1.207573e+00	1.246914e+00	1.183590e+00	1.248517e+00	1.243284e+00	1.245869e+00	1.243332e+00	1.240055e+00	1.248511e+00	1.238215e+00	1.236234e+00	1.227125e+00	1.231877e+00	1.224464e+00	1.244659e+00	1.234119e+00	1.189396e+00	1.229516e+00	1.219045e+00	1.204429e+00	1.210404e+00	1.227044e+00	1.249073e+00	1.195393e+00	1.216222e+00	1.249561e+00	1.178032e+00	1.207532e+00	1.221795e+00	1.192376e+00	1.165894e+00	1.170391e+00	1.201354e+00	1.153363e+00	1.161972e+00	1.183571e+00	1.175381e+00	1.156149e+00	1.158703e+00	1.163856e+00	1.186465e+00	1.241746e+00	1.153086e+00	1.154317e+00	1.160254e+00	1.213331e+00	1.155161e+00	1.153294e+00	1.168075e+00	1.213581e+00	1.153277e+00	1.158711e+00	1.156164e+00	1.153105e+00	1.161974e+00	1.201512e+00	1.172794e+00	1.168056e+00	1.221925e+00	1.155159e+00	1.163847e+00	1.157345e+00	1.165879e+00	1.186452e+00	1.180736e+00	1.189393e+00	1.195439e+00	1.175343e+00	1.177995e+00	1.216362e+00	1.210558e+00	1.198472e+00	1.227145e+00	1.239770e+00	1.186614e+00	1.231926e+00	1.183560e+00	1.242642e+00	1.236167e+00	1.213485e+00	1.216471e+00	1.234180e+00	1.241297e+00	1.245393e+00	1.236212e+00	1.238083e+00	1.224689e+00	1.229684e+00	1.210635e+00	1.234188e+00	1.207658e+00	1.195437e+00	1.201475e+00	1.163947e+00	1.172861e+00	1.186458e+00	1.153544e+00	1.157460e+00	1.153356e+00	1.162045e+00	1.219179e+00	1.241302e+00	1.243748e+00	1.189403e+00	1.160262e+00	1.239782e+00	1.245921e+00	1.246388e+00	1.222034e+00	1.232001e+00	1.175391e+00	1.198508e+00	1.157333e+00	1.243781e+00	1.170367e+00	1.229597e+00	1.204550e+00	1.246327e+00	1.245439e+00	1.246678e+00	1.245969e+00	1.246533e+00	1.246278e+00	1.153676e+00	1.153655e+00	1.247823e+00	1.249553e+00	1.158903e+00	1.154523e+00	1.246513e+00	1.244407e+00	1.176231e+00	1.159063e+00	1.246760e+00	1.214304e+00	1.224795e+00	1.158996e+00	1.162340e+00	1.170094e+00	1.178633e+00	1.165064e+00	1.186218e+00	1.183606e+00	1.191604e+00	1.224618e+00	1.227082e+00	1.166585e+00	1.199994e+00	1.245368e+00	1.249081e+00	1.247299e+00	1.239572e+00	1.202698e+00	1.237779e+00	1.244113e+00	1.178477e+00	1.171784e+00	1.162147e+00	1.161124e+00	1.205498e+00	1.159703e+00	1.161248e+00	1.168083e+00	1.163495e+00	1.208589e+00	1.188837e+00	1.194354e+00	1.246159e+00	1.191574e+00	1.222353e+00	1.174144e+00	1.194421e+00	1.176352e+00	1.174066e+00	1.171953e+00	1.211508e+00	1.208674e+00	1.158768e+00	1.229678e+00	1.244369e+00	1.245128e+00	1.233946e+00	1.178570e+00	1.158848e+00	1.160386e+00	1.159204e+00	1.186073e+00	1.208386e+00	1.227008e+00	1.249089e+00	1.248625e+00	1.243445e+00	1.180921e+00	1.227241e+00	1.183457e+00	1.188743e+00	1.235980e+00	1.168265e+00	1.239443e+00	1.222249e+00	1.159935e+00	1.214048e+00	1.159333e+00	1.172058e+00	1.183625e+00	1.211272e+00	1.169972e+00	1.181073e+00	1.176296e+00	1.168132e+00	1.166446e+00	1.188886e+00	1.202831e+00	1.208468e+00	1.222072e+00	1.160610e+00	1.205652e+00	1.237834e+00	1.235915e+00	1.233872e+00	1.161468e+00	1.231714e+00	1.197172e+00	1.194371e+00	1.161320e+00	1.248030e+00	1.219458e+00	1.216782e+00	1.241276e+00	1.239623e+00	1.247322e+00	1.246422e+00	1.248021e+00	1.246393e+00	1.245332e+00	1.244152e+00	1.242788e+00	1.229449e+00	1.231647e+00	1.233809e+00	1.235855e+00	1.191468e+00	1.194241e+00	1.229379e+00	1.219371e+00	1.213959e+00	1.211205e+00	1.248607e+00	1.197052e+00	1.199897e+00	1.216690e+00	1.249317e+00	1.221991e+00	1.224540e+00	1.173902e+00	1.176136e+00	1.186226e+00	1.163346e+00	1.167955e+00	1.169798e+00	1.241229e+00	1.242745e+00	1.164729e+00	1.166265e+00	1.162291e+00	1.158896e+00	1.205719e+00	1.202855e+00	1.174006e+00	1.171903e+00	1.160282e+00	1.169923e+00	1.186158e+00	1.183548e+00	1.200010e+00	1.197178e+00	1.181014e+00	1.219634e+00	1.216952e+00	1.214209e+00	1.211425e+00	1.237763e+00	1.235926e+00	1.217055e+00	1.219738e+00	1.242284e+00	1.237803e+00	1.224896e+00	1.227336e+00	1.197246e+00	1.200098e+00	1.202932e+00	1.205790e+00	1.181105e+00	1.188900e+00	1.159130e+00	1.159438e+00	1.162507e+00	1.163705e+00	1.242293e+00	1.240956e+00	1.243421e+00	1.191637e+00	1.166394e+00	1.164861e+00	1.239468e+00	1.240964e+00	1.245704e+00	1.245766e+00	1.231907e+00	1.234011e+00	1.178675e+00	1.231829e+00	1.229591e+00	1.245753e+00	1.245174e+00	1.246409e+00	1.246539e+00	1.246108e+00	1.246364e+00	1.159132e+00	1.159610e+00	1.249354e+00	1.249314e+00	1.164915e+00	1.163535e+00	1.160479e+00	1.159808e+00	1.246506e+00	1.246600e+00	1.245837e+00	1.167276e+00	1.175924e+00	1.181859e+00	1.248815e+00	1.212049e+00	1.229228e+00	1.167098e+00	1.166249e+00	1.242967e+00	1.237368e+00	1.243964e+00	1.191291e+00	1.235515e+00	1.227040e+00	1.179832e+00	1.217312e+00	1.204226e+00	1.244679e+00	1.240611e+00	1.239003e+00	1.224704e+00	1.206760e+00	1.244647e+00	1.183939e+00	1.169339e+00	1.165031e+00	1.184080e+00	1.173984e+00	1.209623e+00	1.179711e+00	1.233598e+00	1.224970e+00	1.231660e+00	1.199104e+00	1.217571e+00	1.181954e+00	1.224851e+00	1.246367e+00	1.172328e+00	1.164696e+00	1.181845e+00	1.246434e+00	1.214995e+00	1.164661e+00	1.188800e+00	1.191273e+00	1.229295e+00	1.170986e+00	1.219747e+00	1.181715e+00	1.172205e+00	1.214653e+00	1.167197e+00	1.246198e+00	1.196404e+00	1.193826e+00	1.177823e+00	1.184177e+00	1.179736e+00	1.177703e+00	1.212380e+00	1.243946e+00	1.244749e+00	1.164466e+00	1.164643e+00	1.166283e+00	1.165570e+00	1.164497e+00	1.209404e+00	1.248501e+00	1.227180e+00	1.186262e+00	1.188667e+00	1.191143e+00	1.172487e+00	1.174136e+00	1.164831e+00	1.186507e+00	1.214739e+00	1.212137e+00	1.175793e+00	1.186399e+00	1.184084e+00	1.174008e+00	1.172369e+00	1.193768e+00	1.165758e+00	1.209511e+00	1.206871e+00	1.237323e+00	1.235474e+00	1.166472e+00	1.233515e+00	1.201570e+00	1.198933e+00	1.196327e+00	1.248012e+00	1.222295e+00	1.219830e+00	1.240658e+00	1.239053e+00	1.247404e+00	1.246645e+00	1.245742e+00	1.247395e+00	1.245715e+00	1.246625e+00	1.243474e+00	1.242133e+00	1.231454e+00	1.231389e+00	1.233454e+00	1.235416e+00	1.237269e+00	1.193645e+00	1.196210e+00	1.248012e+00	1.248488e+00	1.198824e+00	1.201468e+00	1.204123e+00	1.217225e+00	1.222217e+00	1.224630e+00	1.226969e+00	1.177551e+00	1.179589e+00	1.188905e+00	1.168132e+00	1.173847e+00	1.175637e+00	1.242091e+00	1.243437e+00	1.170706e+00	1.168257e+00	1.164675e+00	1.206967e+00	1.177690e+00	1.175780e+00	1.188825e+00	1.204312e+00	1.201666e+00	1.199028e+00	1.186420e+00	1.222444e+00	1.219977e+00	1.217454e+00	1.214883e+00	1.212273e+00	1.238960e+00	1.237308e+00	1.220098e+00	1.222562e+00	1.227295e+00	1.229527e+00	1.201751e+00	1.204407e+00	1.207066e+00	1.209732e+00	1.191367e+00	1.164873e+00	1.165228e+00	1.167378e+00	1.168435e+00	1.169635e+00	1.241797e+00	1.240455e+00	1.242965e+00	1.193898e+00	1.196477e+00	1.170821e+00	1.169456e+00	1.239001e+00	1.240485e+00	1.241811e+00	1.245376e+00	1.246494e+00	1.233684e+00	1.235591e+00	1.231561e+00	1.229420e+00	1.245885e+00	1.245418e+00	1.244782e+00	1.246145e+00	1.164998e+00	1.165540e+00	1.248938e+00	1.248953e+00	1.248827e+00	1.170874e+00	1.169510e+00	1.168307e+00	1.166429e+00	1.165715e+00	1.165180e+00	1.246324e+00	1.246422e+00	1.246493e+00	1.175262e+00	1.243851e+00	1.243295e+00	1.185313e+00	1.226997e+00	1.231113e+00	1.244880e+00	1.245792e+00	1.215709e+00	1.242286e+00	1.215396e+00	1.176683e+00	1.181595e+00	1.203439e+00	1.246150e+00	1.170258e+00	1.217880e+00	1.205721e+00	1.196133e+00	1.208087e+00	1.220168e+00	1.174074e+00	1.248290e+00	1.241331e+00	1.185219e+00	1.172156e+00	1.173032e+00	1.210719e+00	1.234955e+00	1.187222e+00	1.193842e+00	1.213092e+00	1.233058e+00	1.238367e+00	1.236730e+00	1.246194e+00	1.227117e+00	1.176601e+00	1.170432e+00	1.172322e+00	1.170368e+00	1.179864e+00	1.248082e+00	1.229121e+00	1.183387e+00	1.239905e+00	1.187113e+00	1.170494e+00	1.200904e+00	1.218031e+00	1.227035e+00	1.178151e+00	1.170311e+00	1.193813e+00	1.178049e+00	1.173163e+00	1.246045e+00	1.198506e+00	1.196109e+00	1.187308e+00	1.185253e+00	1.183325e+00	1.243331e+00	1.244133e+00	1.170132e+00	1.170199e+00	1.172224e+00	1.171476e+00	1.170905e+00	1.210523e+00	1.212968e+00	1.189241e+00	1.191429e+00	1.193687e+00	1.176828e+00	1.178279e+00	1.189457e+00	1.215482e+00	1.181489e+00	1.191558e+00	1.189337e+00	1.187269e+00	1.179785e+00	1.178197e+00	1.213057e+00	1.210620e+00	1.208181e+00	1.236745e+00	1.171643e+00	1.234981e+00	1.203273e+00	1.200844e+00	1.198439e+00	1.247730e+00	1.224803e+00	1.222545e+00	1.220248e+00	1.238406e+00	1.239951e+00	1.247224e+00	1.246587e+00	1.245819e+00	1.244907e+00	1.245797e+00	1.246572e+00	1.242676e+00	1.241373e+00	1.233121e+00	1.231174e+00	1.233062e+00	1.234927e+00	1.236691e+00	1.238357e+00	1.196014e+00	1.198326e+00	1.247212e+00	1.247716e+00	1.200735e+00	1.203166e+00	1.205618e+00	1.217802e+00	1.222471e+00	1.224731e+00	1.226930e+00	1.229056e+00	1.183187e+00	1.185131e+00	1.191622e+00	1.179640e+00	1.181345e+00	1.242640e+00	1.243819e+00	1.183283e+00	1.181483e+00	1.179742e+00	1.208213e+00	1.205813e+00	1.203341e+00	1.191547e+00	1.189376e+00	1.224879e+00	1.222572e+00	1.220338e+00	1.217927e+00	1.215607e+00	1.238251e+00	1.236637e+00	1.220449e+00	1.222683e+00	1.224991e+00	1.229292e+00	1.231248e+00	1.205844e+00	1.208343e+00	1.210785e+00	1.213232e+00	1.193913e+00	1.170674e+00	1.171076e+00	1.172399e+00	1.173314e+00	1.174333e+00	1.175521e+00	1.241031e+00	1.239769e+00	1.196178e+00	1.198574e+00	1.200938e+00	1.175358e+00	1.174190e+00	1.239752e+00	1.241145e+00	1.242247e+00	1.244885e+00	1.245371e+00	1.233232e+00	1.235014e+00	1.231194e+00	1.229137e+00	1.245836e+00	1.245403e+00	1.244910e+00	1.244169e+00	1.170442e+00	1.170863e+00	1.171461e+00	1.248370e+00	1.248302e+00	1.248092e+00	1.176752e+00	1.175416e+00	1.174232e+00	1.173192e+00	1.171615e+00	1.171021e+00	1.170621e+00	1.245994e+00	1.246148e+00	1.246125e+00	1.246011e+00	1.206285e+00	1.186262e+00	1.189581e+00	1.220691e+00	1.239126e+00	1.182962e+00	1.183102e+00	1.238245e+00	1.189669e+00	1.240475e+00	1.218433e+00	1.193394e+00	1.176219e+00	1.245375e+00	1.175731e+00	1.196426e+00	1.207263e+00	1.237677e+00	1.242887e+00	1.209550e+00	1.226973e+00	1.218468e+00	1.239188e+00	1.244793e+00	1.247547e+00	1.228919e+00	1.232642e+00	1.181038e+00	1.212942e+00	1.235092e+00	1.217501e+00	1.180573e+00	1.177586e+00	1.241904e+00	1.247161e+00	1.198506e+00	1.177745e+00	1.179351e+00	1.243964e+00	1.230830e+00	1.175957e+00	1.220603e+00	1.247479e+00	1.231670e+00	1.245748e+00	1.191311e+00	1.175903e+00	1.201763e+00	1.197494e+00	1.188731e+00	1.242922e+00	1.177649e+00	1.176442e+00	1.211705e+00	1.213978e+00	1.216174e+00	1.194277e+00	1.196279e+00	1.183236e+00	1.193470e+00	1.186139e+00	1.193357e+00	1.190514e+00	1.183098e+00	1.216295e+00	1.214022e+00	1.211821e+00	1.236130e+00	1.205065e+00	1.201707e+00	1.224904e+00	1.222831e+00	1.246819e+00	1.246247e+00	1.245645e+00	1.244816e+00	1.245626e+00	1.241797e+00	1.240518e+00	1.234439e+00	1.232708e+00	1.230873e+00	1.234410e+00	1.236050e+00	1.237644e+00	1.198395e+00	1.201606e+00	1.246231e+00	1.246806e+00	1.247151e+00	1.204966e+00	1.207168e+00	1.209493e+00	1.222782e+00	1.224835e+00	1.226909e+00	1.228860e+00	1.188598e+00	1.186007e+00	1.241761e+00	1.242856e+00	1.243937e+00	1.186159e+00	1.208482e+00	1.205098e+00	1.225885e+00	1.221731e+00	1.217397e+00	1.237418e+00	1.221823e+00	1.225966e+00	1.229908e+00	1.210781e+00	1.214134e+00	1.197563e+00	1.177104e+00	1.178232e+00	1.179608e+00	1.181286e+00	1.239531e+00	1.201825e+00	1.178993e+00	1.240829e+00	1.244456e+00	1.233520e+00	1.235978e+00	1.228862e+00	1.245410e+00	1.244469e+00	1.243341e+00	1.176019e+00	1.176661e+00	1.247595e+00	1.247445e+00	1.181179e+00	1.179496e+00	1.176544e+00	1.176035e+00	1.245697e+00	1.245558e+00	1.217881e+00	1.202920e+00	1.237579e+00	1.246617e+00	1.246252e+00	1.185294e+00	1.221957e+00	1.244102e+00	1.228634e+00	1.202991e+00	1.206953e+00	1.240291e+00	1.193587e+00	1.209719e+00	1.219990e+00	1.242355e+00	1.229558e+00	1.246252e+00	1.240136e+00	1.213788e+00	1.238205e+00	1.185162e+00	1.183530e+00	1.236958e+00	1.189338e+00	1.217646e+00	1.209475e+00	1.195473e+00	1.234785e+00	1.217043e+00	1.243150e+00	1.192291e+00	1.200750e+00	1.232970e+00	1.239216e+00	1.236157e+00	1.206375e+00	1.186822e+00	1.181243e+00	1.182277e+00	1.181566e+00	1.194078e+00	1.196630e+00	1.199651e+00	1.195883e+00	1.198562e+00	1.191769e+00	1.246578e+00	1.215903e+00	1.212871e+00	1.206276e+00	1.203330e+00	1.225874e+00	1.223025e+00	1.245429e+00	1.244122e+00	1.240185e+00	1.234605e+00	1.232206e+00	1.236080e+00	1.238227e+00	1.245415e+00	1.203249e+00	1.206184e+00	1.209632e+00	1.225821e+00	1.229511e+00	1.195558e+00	1.189019e+00	1.191635e+00	1.242326e+00	1.192195e+00	1.189219e+00	1.213013e+00	1.199110e+00	1.224886e+00	1.221055e+00	1.221135e+00	1.224956e+00	1.211043e+00	1.214587e+00	1.181392e+00	1.181929e+00	1.182889e+00	1.184078e+00	1.185460e+00	1.187106e+00	1.199187e+00	1.186672e+00	1.184860e+00	1.183515e+00	1.241399e+00	1.244378e+00	1.232072e+00	1.233582e+00	1.230746e+00	1.228106e+00	1.245041e+00	1.242031e+00	1.244380e+00	1.243300e+00	1.181185e+00	1.181668e+00	1.182399e+00	1.189142e+00	1.186950e+00	1.183673e+00	1.182352e+00	1.181623e+00	1.181335e+00	1.245007e+00	1.245056e+00	1.245094e+00	1.245292e+00	1.245329e+00	1.230675e+00	1.195046e+00	1.242437e+00	1.234708e+00	1.186559e+00	1.233551e+00	1.217618e+00	1.213527e+00	1.187865e+00	1.189150e+00	1.245455e+00	1.210645e+00	1.231580e+00	1.199126e+00	1.186998e+00	1.238767e+00	1.213905e+00	1.192399e+00	1.204270e+00	1.233399e+00	1.243908e+00	1.211485e+00	1.197765e+00	1.237646e+00	1.236803e+00	1.189279e+00	1.243909e+00	1.204054e+00	1.190798e+00	1.207838e+00	1.240429e+00	1.222767e+00	1.231254e+00	1.190677e+00	1.238703e+00	1.227180e+00	1.235602e+00	1.207531e+00	1.200876e+00	1.210513e+00	1.210563e+00	1.187927e+00	1.236900e+00	1.200809e+00	1.197615e+00	1.219504e+00	1.216351e+00	1.207682e+00	1.228351e+00	1.225453e+00	1.244787e+00	1.243832e+00	1.240655e+00	1.238500e+00	1.235945e+00	1.234542e+00	1.243818e+00	1.244781e+00	1.201737e+00	1.204512e+00	1.207591e+00	1.221291e+00	1.224936e+00	1.228305e+00	1.197854e+00	1.194542e+00	1.196880e+00	1.240619e+00	1.242416e+00	1.194943e+00	1.216906e+00	1.213531e+00	1.224054e+00	1.220530e+00	1.220856e+00	1.224120e+00	1.227467e+00	1.214918e+00	1.217884e+00	1.186739e+00	1.187431e+00	1.188440e+00	1.189624e+00	1.190978e+00	1.192710e+00	1.200958e+00	1.204346e+00	1.192424e+00	1.190495e+00	1.189086e+00	1.239673e+00	1.241505e+00	1.242956e+00	1.232309e+00	1.229836e+00	1.242998e+00	1.241825e+00	1.186343e+00	1.186529e+00	1.187112e+00	1.194648e+00	1.192516e+00	1.187943e+00	1.187051e+00	1.186605e+00	1.186487e+00	1.244227e+00	1.244104e+00	1.244266e+00	1.235310e+00	1.194379e+00	1.191315e+00	1.240683e+00	1.239019e+00	1.235424e+00	1.226304e+00	1.243061e+00	1.236099e+00	1.232481e+00	1.205734e+00	1.195853e+00	1.243800e+00	1.233081e+00	1.211688e+00	1.203855e+00	1.220832e+00	1.212078e+00	1.201643e+00	1.234187e+00	1.200260e+00	1.215252e+00	1.233332e+00	1.243072e+00	1.211606e+00	1.192272e+00	1.191445e+00	1.193195e+00	1.205620e+00	1.229402e+00	1.197961e+00	1.193130e+00	1.217543e+00	1.193147e+00	1.244119e+00	1.244090e+00	1.214292e+00	1.192176e+00	1.191611e+00	1.237334e+00	1.214433e+00	1.208716e+00	1.232021e+00	1.202818e+00	1.242389e+00	1.194493e+00	1.208621e+00	1.238752e+00	1.237129e+00	1.211490e+00	1.202629e+00	1.222321e+00	1.219491e+00	1.216829e+00	1.230105e+00	1.227538e+00	1.225049e+00	1.243163e+00	1.242110e+00	1.238921e+00	1.236799e+00	1.234581e+00	1.243153e+00	1.243831e+00	1.206211e+00	1.208767e+00	1.224141e+00	1.227281e+00	1.230256e+00	1.197551e+00	1.199556e+00	1.242093e+00	1.240655e+00	1.200176e+00	1.217072e+00	1.214228e+00	1.220161e+00	1.223371e+00	1.223564e+00	1.226481e+00	1.220762e+00	1.218094e+00	1.191854e+00	1.192621e+00	1.193656e+00	1.194788e+00	1.196155e+00	1.202893e+00	1.205808e+00	1.208896e+00	1.197771e+00	1.195797e+00	1.194336e+00	1.237946e+00	1.239688e+00	1.241222e+00	1.242391e+00	1.228876e+00	1.231194e+00	1.240155e+00	1.241360e+00	1.191274e+00	1.191627e+00	1.199954e+00	1.197652e+00	1.195962e+00	1.192232e+00	1.191636e+00	1.191379e+00	1.243013e+00	1.243046e+00	1.207998e+00	1.195807e+00	1.231299e+00	1.231662e+00	1.238921e+00	1.212468e+00	1.220725e+00	1.220028e+00	1.200593e+00	1.207140e+00	1.225516e+00	1.209934e+00	1.240288e+00	1.198029e+00	1.212517e+00	1.233868e+00	1.215094e+00	1.238890e+00	1.22453