# vtk DataFile Version 3.0
vtk output
ASCII
DATASET UNSTRUCTURED_GRID
POINTS 5233 double
5.332667e-01	-1.937787e-05	0.0	5.328666e-01	-7.747835e-05	0.0	5.322052e-01	-1.734143e-04	0.0	5.312771e-01	-3.077709e-04	0.0	5.300823e-01	-4.802929e-04	0.0	5.286261e-01	-6.898803e-04	0.0	5.269139e-01	-9.353754e-04	0.0	5.249350e-01	-1.217847e-03	0.0	5.227053e-01	-1.534499e-03	0.0	5.202143e-01	-1.886275e-03	0.0	5.174780e-01	-2.270294e-03	0.0	5.144856e-01	-2.687389e-03	0.0	5.112479e-01	-3.135366e-03	0.0	5.077648e-01	-3.613480e-03	0.0	5.040417e-01	-4.120231e-03	0.0	5.000838e-01	-4.654101e-03	0.0	4.958966e-01	-5.213570e-03	0.0	4.914748e-01	-5.798517e-03	0.0	4.868342e-01	-6.405991e-03	0.0	4.819696e-01	-7.035844e-03	0.0	4.768916e-01	-7.685848e-03	0.0	4.716056e-01	-8.354480e-03	0.0	4.661116e-01	-9.040897e-03	0.0	4.604202e-01	-9.742920e-03	0.0	4.545421e-01	-1.045842e-02	0.0	4.484667e-01	-1.118787e-02	0.0	4.422153e-01	-1.192787e-02	0.0	4.357931e-01	-1.267701e-02	0.0	4.291950e-01	-1.343509e-02	0.0	4.224368e-01	-1.419944e-02	0.0	4.155239e-01	-1.496868e-02	0.0	4.084670e-01	-1.574081e-02	0.0	4.012661e-01	-1.651503e-02	0.0	3.939266e-01	-1.728991e-02	0.0	3.864643e-01	-1.806293e-02	0.0	3.788847e-01	-1.883270e-02	0.0	3.711877e-01	-1.959832e-02	0.0	3.633894e-01	-2.035729e-02	0.0	3.554951e-01	-2.110818e-02	0.0	3.475101e-01	-2.184951e-02	0.0	3.394451e-01	-2.257927e-02	0.0	3.313107e-01	-2.329549e-02	0.0	3.231124e-01	-2.399664e-02	0.0	3.148553e-01	-2.468112e-02	0.0	3.065503e-01	-2.534691e-02	0.0	2.982026e-01	-2.599235e-02	0.0	2.898282e-01	-2.661497e-02	0.0	2.814272e-01	-2.721352e-02	0.0	2.730154e-01	-2.778554e-02	0.0	2.645931e-01	-2.832969e-02	0.0	2.561760e-01	-2.884356e-02	0.0	2.477696e-01	-2.932545e-02	0.0	2.393793e-01	-2.977364e-02	0.0	2.310209e-01	-3.018586e-02	0.0	2.226945e-01	-3.056071e-02	0.0	2.144108e-01	-3.089626e-02	0.0	2.061804e-01	-3.119068e-02	0.0	1.980141e-01	-3.144225e-02	0.0	1.899117e-01	-3.164962e-02	0.0	1.818841e-01	-3.181116e-02	0.0	1.739471e-01	-3.192535e-02	0.0	1.661008e-01	-3.199101e-02	0.0	1.583505e-01	-3.200693e-02	0.0	1.507122e-01	-3.197203e-02	0.0	1.431912e-01	-3.188540e-02	0.0	1.357876e-01	-3.174614e-02	0.0	1.285174e-01	-3.155374e-02	0.0	1.213858e-01	-3.130768e-02	0.0	1.143983e-01	-3.100759e-02	0.0	1.075654e-01	-3.065349e-02	0.0	1.008873e-01	-3.024500e-02	0.0	9.437446e-02	-2.978246e-02	0.0	8.803234e-02	-2.926611e-02	0.0	8.187157e-02	-2.869680e-02	0.0	7.589748e-02	-2.807521e-02	0.0	7.011010e-02	-2.740147e-02	0.0	6.451473e-02	-2.667633e-02	0.0	5.912739e-02	-2.590226e-02	0.0	5.394274e-02	-2.507895e-02	0.0	4.897146e-02	-2.420850e-02	0.0	4.421886e-02	-2.329247e-02	0.0	3.968496e-02	-2.233137e-02	0.0	3.538042e-02	-2.132807e-02	0.0	3.130525e-02	-2.028326e-02	0.0	2.746477e-02	-1.919887e-02	0.0	2.386432e-02	-1.807708e-02	0.0	2.050390e-02	-1.691844e-02	0.0	1.738884e-02	-1.572522e-02	0.0	1.452448e-02	-1.450005e-02	0.0	1.190549e-02	-1.324075e-02	0.0	9.547860e-03	-1.195544e-02	0.0	7.440930e-03	-1.063862e-02	0.0	5.595366e-03	-9.296715e-03	0.0	4.011168e-03	-7.930358e-03	0.0	2.688336e-03	-6.539657e-03	0.0	1.626870e-03	-5.123609e-03	0.0	8.321040e-04	-3.689804e-03	0.0	2.987040e-04	-2.225963e-03	0.0	3.200400e-05	-7.336009e-04	0.0	0.000000e+00	0.000000e+00	0.0	3.200400e-05	7.336009e-04	0.0	2.987040e-04	2.225963e-03	0.0	8.321040e-04	3.689804e-03	0.0	1.626870e-03	5.123609e-03	0.0	2.688336e-03	6.539657e-03	0.0	4.011168e-03	7.930358e-03	0.0	5.595366e-03	9.296715e-03	0.0	7.440930e-03	1.063862e-02	0.0	9.547860e-03	1.195544e-02	0.0	1.190549e-02	1.324075e-02	0.0	1.452448e-02	1.450005e-02	0.0	1.738884e-02	1.572522e-02	0.0	2.050390e-02	1.691844e-02	0.0	2.386432e-02	1.807708e-02	0.0	2.746477e-02	1.919887e-02	0.0	3.130525e-02	2.028326e-02	0.0	3.538042e-02	2.132807e-02	0.0	3.968496e-02	2.233137e-02	0.0	4.421886e-02	2.329247e-02	0.0	4.897146e-02	2.420850e-02	0.0	5.394274e-02	2.507895e-02	0.0	5.912739e-02	2.590226e-02	0.0	6.451473e-02	2.667633e-02	0.0	7.011010e-02	2.740147e-02	0.0	7.589748e-02	2.807521e-02	0.0	8.187157e-02	2.869680e-02	0.0	8.803234e-02	2.926611e-02	0.0	9.437446e-02	2.978246e-02	0.0	1.008873e-01	3.024500e-02	0.0	1.075654e-01	3.065349e-02	0.0	1.143983e-01	3.100759e-02	0.0	1.213858e-01	3.130768e-02	0.0	1.285174e-01	3.155374e-02	0.0	1.357876e-01	3.174614e-02	0.0	1.431912e-01	3.188540e-02	0.0	1.507122e-01	3.197203e-02	0.0	1.583505e-01	3.200693e-02	0.0	1.661008e-01	3.199101e-02	0.0	1.739471e-01	3.192535e-02	0.0	1.818841e-01	3.181116e-02	0.0	1.899117e-01	3.164962e-02	0.0	1.980141e-01	3.144225e-02	0.0	2.061804e-01	3.119068e-02	0.0	2.144108e-01	3.089626e-02	0.0	2.226945e-01	3.056071e-02	0.0	2.310209e-01	3.018586e-02	0.0	2.393793e-01	2.977364e-02	0.0	2.477696e-01	2.932545e-02	0.0	2.561760e-01	2.884356e-02	0.0	2.645931e-01	2.832969e-02	0.0	2.730154e-01	2.778554e-02	0.0	2.814272e-01	2.721352e-02	0.0	2.898282e-01	2.661497e-02	0.0	2.982026e-01	2.599235e-02	0.0	3.065503e-01	2.534691e-02	0.0	3.148553e-01	2.468112e-02	0.0	3.231124e-01	2.399664e-02	0.0	3.313107e-01	2.329549e-02	0.0	3.394451e-01	2.257927e-02	0.0	3.475101e-01	2.184951e-02	0.0	3.554951e-01	2.110818e-02	0.0	3.633894e-01	2.035729e-02	0.0	3.711877e-01	1.959832e-02	0.0	3.788847e-01	1.883270e-02	0.0	3.864643e-01	1.806293e-02	0.0	3.939266e-01	1.728991e-02	0.0	4.012661e-01	1.651503e-02	0.0	4.084670e-01	1.574081e-02	0.0	4.155239e-01	1.496868e-02	0.0	4.224368e-01	1.419944e-02	0.0	4.291950e-01	1.343509e-02	0.0	4.357931e-01	1.267701e-02	0.0	4.422153e-01	1.192787e-02	0.0	4.484667e-01	1.118787e-02	0.0	4.545421e-01	1.045842e-02	0.0	4.604202e-01	9.742920e-03	0.0	4.661116e-01	9.040897e-03	0.0	4.716056e-01	8.354480e-03	0.0	4.768916e-01	7.685848e-03	0.0	4.819696e-01	7.035844e-03	0.0	4.868342e-01	6.405991e-03	0.0	4.914748e-01	5.798517e-03	0.0	4.958966e-01	5.213570e-03	0.0	5.000838e-01	4.654101e-03	0.0	5.040417e-01	4.120231e-03	0.0	5.077648e-01	3.613480e-03	0.0	5.112479e-01	3.135366e-03	0.0	5.144856e-01	2.687389e-03	0.0	5.174780e-01	2.270294e-03	0.0	5.202143e-01	1.886275e-03	0.0	5.227053e-01	1.534499e-03	0.0	5.249350e-01	1.217847e-03	0.0	5.269139e-01	9.353754e-04	0.0	5.286261e-01	6.898803e-04	0.0	5.300823e-01	4.802929e-04	0.0	5.312771e-01	3.077709e-04	0.0	5.322052e-01	1.734143e-04	0.0	5.328666e-01	7.747835e-05	0.0	5.332667e-01	1.937787e-05	0.0	5.334000e-01	0.000000e+00	0.0	1.058388e+01	1.337052e+00	0.0	1.033284e+01	2.653025e+00	0.0	9.918855e+00	3.927152e+00	0.0	9.348438e+00	5.139346e+00	0.0	8.630593e+00	6.270496e+00	0.0	7.776636e+00	7.302747e+00	0.0	6.800039e+00	8.219838e+00	0.0	5.716203e+00	9.007291e+00	0.0	4.542216e+00	9.652695e+00	0.0	3.296593e+00	1.014587e+01	0.0	1.998986e+00	1.047904e+01	0.0	6.698491e-01	1.064695e+01	0.0	-6.698491e-01	1.064695e+01	0.0	-1.998986e+00	1.047904e+01	0.0	-3.296593e+00	1.014587e+01	0.0	-4.542216e+00	9.652695e+00	0.0	-5.716203e+00	9.007291e+00	0.0	-6.800039e+00	8.219833e+00	0.0	-7.776636e+00	7.302747e+00	0.0	-8.630593e+00	6.270490e+00	0.0	-9.348438e+00	5.139346e+00	0.0	-9.918855e+00	3.927152e+00	0.0	-1.033284e+01	2.653025e+00	0.0	-1.058388e+01	1.337052e+00	0.0	-1.066800e+01	0.000000e+00	0.0	-1.058388e+01	-1.337058e+00	0.0	-1.033284e+01	-2.653025e+00	0.0	-9.918855e+00	-3.927152e+00	0.0	-9.348438e+00	-5.139352e+00	0.0	-8.630593e+00	-6.270496e+00	0.0	-7.776636e+00	-7.302747e+00	0.0	-6.800039e+00	-8.219838e+00	0.0	-5.716197e+00	-9.007291e+00	0.0	-4.542210e+00	-9.652695e+00	0.0	-3.296593e+00	-1.014587e+01	0.0	-1.998981e+00	-1.047904e+01	0.0	-6.698491e-01	-1.064695e+01	0.0	6.698491e-01	-1.064695e+01	0.0	1.998986e+00	-1.047904e+01	0.0	3.296593e+00	-1.014587e+01	0.0	4.542216e+00	-9.652695e+00	0.0	5.716203e+00	-9.007291e+00	0.0	6.800039e+00	-8.219833e+00	0.0	7.776636e+00	-7.302747e+00	0.0	8.630593e+00	-6.270490e+00	0.0	9.348443e+00	-5.139346e+00	0.0	9.918855e+00	-3.927152e+00	0.0	1.033284e+01	-2.653020e+00	0.0	1.058388e+01	-1.337052e+00	0.0	1.066800e+01	0.000000e+00	0.0	3.238723e-02	-2.453266e-02	0.0	3.521819e-01	-2.879253e-02	0.0	2.271997e-01	3.799500e-02	0.0	3.679870e-01	2.712233e-02	0.0	2.023267e-01	-3.879480e-02	0.0	5.331122e-01	-3.841683e-04	0.0	5.326234e-01	-7.000466e-04	0.0	4.127042e-01	-2.182123e-02	0.0	3.679870e-01	-2.712233e-02	0.0	-7.770406e-04	3.448218e-03	0.0	3.983050e-01	-2.362420e-02	0.0	3.113135e-01	3.262196e-02	0.0	5.295436e-01	-1.908363e-03	0.0	5.279940e-01	-2.373830e-03	0.0	3.196093e-01	3.190221e-02	0.0	3.833827e-01	-2.539339e-02	0.0	-8.521696e-04	4.092242e-04	0.0	5.261817e-01	-2.877582e-03	0.0	5.241119e-01	-3.413214e-03	0.0	-7.770433e-04	-3.448218e-03	0.0	3.441469e-01	-2.960162e-02	0.0	4.396931e-01	-1.818885e-02	0.0	4.265150e-01	-2.000919e-02	0.0	1.860446e-01	3.907736e-02	0.0	4.521692e-01	-1.638556e-02	0.0	1.319768e-01	3.830964e-02	0.0	4.639104e-01	-1.460521e-02	0.0	5.289295e-03	1.165588e-02	0.0	4.748598e-01	-1.286410e-02	0.0	4.107337e-02	-2.696036e-02	0.0	4.849783e-01	-1.117637e-02	0.0	-1.037238e-03	-1.701744e-03	0.0	5.025515e-01	-8.012088e-03	0.0	4.942225e-01	-9.554137e-03	0.0	9.546145e-03	-1.475534e-02	0.0	2.271997e-01	-3.799500e-02	0.0	4.581365e-01	-1.549028e-02	0.0	5.099418e-01	-6.564673e-03	0.0	5.217815e-01	-3.989510e-03	0.0	5.163628e-01	-5.218361e-03	0.0	8.442990e-02	-3.462063e-02	0.0	4.800266e-01	-1.201291e-02	0.0	4.055754e-01	-2.272552e-02	0.0	5.318631e-01	-1.091520e-03	0.0	3.196093e-01	-3.190221e-02	0.0	2.355764e-01	-3.763380e-02	0.0	2.861746e-01	-3.460382e-02	0.0	2.524168e-01	-3.678095e-02	0.0	2.693024e-01	-3.576628e-02	0.0	2.608536e-01	-3.629266e-02	0.0	6.664900e-02	-3.215472e-02	0.0	1.483091e-02	-1.773984e-02	0.0	2.105684e-01	-3.857759e-02	0.0	2.463781e-02	-2.193671e-02	0.0	2.188601e-01	-3.831082e-02	0.0	1.700869e-01	-3.914066e-02	0.0	1.860446e-01	-3.907736e-02	0.0	1.785412e-02	-1.917009e-02	0.0	1.544974e-01	-3.898090e-02	0.0	4.985035e-01	-8.771406e-03	0.0	7.831363e-02	-3.385390e-02	0.0	1.038505e-01	-3.656251e-02	0.0	4.575512e-02	-2.810307e-02	0.0	5.578233e-02	-3.023914e-02	0.0	3.029674e-01	-3.331425e-02	0.0	9.073004e-02	-3.532937e-02	0.0	3.278562e-01	-3.115660e-02	0.0	4.694886e-01	-1.372946e-02	0.0	1.206729e-02	-1.626731e-02	0.0	5.308361e-01	-1.487381e-03	0.0	3.550720e-03	-1.006675e-02	0.0	9.546146e-03	1.475534e-02	0.0	4.897116e-01	-1.035609e-02	0.0	5.0636
[...]
POINT_DATA 5233

SCALARS Density double 1
LOOKUP_TABLE default
1.379768e+00	1.375379e+00	1.372106e+00	1.369750e+00	1.367731e+00	1.366079e+00	1.364608e+00	1.363294e+00	1.362099e+00	1.361005e+00	1.359997e+00	1.359058e+00	1.358181e+00	1.357356e+00	1.356580e+00	1.355846e+00	1.355150e+00	1.354489e+00	1.353860e+00	1.353260e+00	1.352687e+00	1.352140e+00	1.351614e+00	1.351112e+00	1.350629e+00	1.350165e+00	1.349718e+00	1.349288e+00	1.348871e+00	1.348471e+00	1.348080e+00	1.347703e+00	1.347337e+00	1.346981e+00	1.346635e+00	1.346297e+00	1.345967e+00	1.345644e+00	1.345331e+00	1.345021e+00	1.344722e+00	1.344426e+00	1.344141e+00	1.343858e+00	1.343588e+00	1.343320e+00	1.343065e+00	1.342814e+00	1.342579e+00	1.342349e+00	1.342136e+00	1.341935e+00	1.341751e+00	1.341584e+00	1.341436e+00	1.341312e+00	1.341209e+00	1.341134e+00	1.341088e+00	1.341073e+00	1.341097e+00	1.341156e+00	1.341265e+00	1.341411e+00	1.341619e+00	1.341871e+00	1.342195e+00	1.342574e+00	1.343034e+00	1.343560e+00	1.344181e+00	1.344881e+00	1.345692e+00	1.346597e+00	1.347633e+00	1.348785e+00	1.350084e+00	1.351529e+00	1.353146e+00	1.354947e+00	1.356955e+00	1.359189e+00	1.361678e+00	1.364453e+00	1.367542e+00	1.370992e+00	1.374839e+00	1.379111e+00	1.383860e+00	1.389081e+00	1.394702e+00	1.400650e+00	1.406543e+00	1.411816e+00	1.415423e+00	1.415643e+00	1.410517e+00	1.396741e+00	1.377262e+00	1.351883e+00	1.340509e+00	1.321381e+00	1.283858e+00	1.262246e+00	1.247839e+00	1.239604e+00	1.236294e+00	1.236117e+00	1.237730e+00	1.240375e+00	1.243559e+00	1.246922e+00	1.250337e+00	1.253683e+00	1.256895e+00	1.259980e+00	1.262906e+00	1.265689e+00	1.268347e+00	1.270864e+00	1.273279e+00	1.275574e+00	1.277774e+00	1.279890e+00	1.281925e+00	1.283899e+00	1.285798e+00	1.287655e+00	1.289442e+00	1.291203e+00	1.292901e+00	1.294580e+00	1.296203e+00	1.297808e+00	1.299363e+00	1.300898e+00	1.302392e+00	1.303863e+00	1.305300e+00	1.306710e+00	1.308094e+00	1.309443e+00	1.310773e+00	1.312067e+00	1.313346e+00	1.314588e+00	1.315815e+00	1.317008e+00	1.318182e+00	1.319329e+00	1.320456e+00	1.321557e+00	1.322642e+00	1.323697e+00	1.324736e+00	1.325755e+00	1.326752e+00	1.327737e+00	1.328700e+00	1.329654e+00	1.330589e+00	1.331516e+00	1.332427e+00	1.333333e+00	1.334226e+00	1.335115e+00	1.335996e+00	1.336875e+00	1.337749e+00	1.338627e+00	1.339499e+00	1.340377e+00	1.341258e+00	1.342142e+00	1.343035e+00	1.343935e+00	1.344843e+00	1.345766e+00	1.346700e+00	1.347652e+00	1.348620e+00	1.349610e+00	1.350621e+00	1.351659e+00	1.352725e+00	1.353825e+00	1.354965e+00	1.356147e+00	1.357382e+00	1.358677e+00	1.360046e+00	1.361508e+00	1.363075e+00	1.364791e+00	1.366668e+00	1.368906e+00	1.371450e+00	1.374918e+00	1.379310e+00	1.365946e+00	1.347024e+00	1.346968e+00	1.346930e+00	1.346876e+00	1.346834e+00	1.346779e+00	1.346733e+00	1.346689e+00	1.346639e+00	1.346619e+00	1.346582e+00	1.346582e+00	1.346556e+00	1.346586e+00	1.346608e+00	1.346646e+00	1.346685e+00	1.346718e+00	1.346775e+00	1.346808e+00	1.346858e+00	1.346895e+00	1.346943e+00	1.346983e+00	1.347027e+00	1.347065e+00	1.347108e+00	1.347151e+00	1.347185e+00	1.347234e+00	1.347265e+00	1.347316e+00	1.347341e+00	1.347392e+00	1.347418e+00	1.347450e+00	1.347476e+00	1.347477e+00	1.347494e+00	1.347459e+00	1.347454e+00	1.347410e+00	1.347385e+00	1.347339e+00	1.347296e+00	1.347242e+00	1.347199e+00	1.347163e+00	1.347115e+00	1.347061e+00	1.365176e+00	1.345447e+00	1.314708e+00	1.332266e+00	1.341817e+00	1.375590e+00	1.373508e+00	1.348093e+00	1.346055e+00	1.327244e+00	1.347374e+00	1.325661e+00	1.366840e+00	1.365311e+00	1.326645e+00	1.346697e+00	1.361795e+00	1.363915e+00	1.362693e+00	1.404864e+00	1.345147e+00	1.349677e+00	1.348858e+00	1.308423e+00	1.350560e+00	1.298619e+00	1.351514e+00	1.258821e+00	1.352550e+00	1.360015e+00	1.353683e+00	1.392269e+00	1.356300e+00	1.354925e+00	1.393798e+00	1.342067e+00	1.351028e+00	1.357835e+00	1.361564e+00	1.359569e+00	1.347530e+00	1.353104e+00	1.347729e+00	1.370691e+00	1.344322e+00	1.342197e+00	1.343331e+00	1.342515e+00	1.342897e+00	1.342692e+00	1.350995e+00	1.383746e+00	1.341879e+00	1.371521e+00	1.341958e+00	1.341922e+00	1.341798e+00	1.379293e+00	1.342214e+00	1.355594e+00	1.348546e+00	1.345072e+00	1.357820e+00	1.354047e+00	1.343808e+00	1.346600e+00	1.344583e+00	1.352022e+00	1.388625e+00	1.368642e+00	1.409392e+00	1.255662e+00	1.354289e+00	1.357045e+00	1.360528e+00	1.303674e+00	1.350111e+00	1.343036e+00	1.343555e+00	1.347029e+00	1.348474e+00	1.352451e+00	1.343901e+00	1.344052e+00	1.345741e+00	1.368190e+00	1.413273e+00	1.399200e+00	1.341796e+00	1.345796e+00	1.386262e+00	1.343441e+00	1.355834e+00	1.342041e+00	1.342708e+00	1.342342e+00	1.346369e+00	1.349857e+00	1.412925e+00	1.322595e+00	1.372385e+00	1.257479e+00	1.265594e+00	1.261210e+00	1.280229e+00	1.313502e+00	1.369947e+00	1.321529e+00	1.318215e+00	1.358052e+00	1.355607e+00	1.346378e+00	1.319340e+00	1.315904e+00	1.311010e+00	1.350225e+00	1.348263e+00	1.272168e+00	1.359368e+00	1.354460e+00	1.352282e+00	1.276314e+00	1.267811e+00	1.302962e+00	1.300086e+00	1.289158e+00	1.305742e+00	1.317066e+00	1.312260e+00	1.285719e+00	1.282106e+00	1.328572e+00	1.292440e+00	1.295586e+00	1.330443e+00	1.324654e+00	1.335807e+00	1.334051e+00	1.339276e+00	1.337546e+00	1.342770e+00	1.341019e+00	1.347314e+00	1.344549e+00	1.353354e+00	1.349234e+00	1.356804e+00	1.343655e+00	1.345459e+00	1.340147e+00	1.341891e+00	1.336682e+00	1.338417e+00	1.333168e+00	1.334936e+00	1.329520e+00	1.331365e+00	1.323628e+00	1.327624e+00	1.294015e+00	1.297105e+00	1.287441e+00	1.290803e+00	1.263373e+00	1.283927e+00	1.256313e+00	1.259194e+00	1.344452e+00	1.272663e+00	1.358672e+00	1.349263e+00	1.341840e+00	1.343100e+00	1.286053e+00	1.256153e+00	1.263902e+00	1.274260e+00	1.270000e+00	1.301542e+00	1.278294e+00	1.360769e+00	1.362248e+00	1.304364e+00	1.363898e+00	1.365659e+00	1.307088e+00	1.309721e+00	1.351241e+00	1.385860e+00	1.372946e+00	1.375192e+00	1.344868e+00	1.375216e+00	1.367686e+00	1.320448e+00	1.414508e+00	1.404612e+00	1.362462e+00	1.349717e+00	1.342427e+00	1.276754e+00	1.330710e+00	1.350090e+00	1.343250e+00	1.346486e+00	1.354117e+00	1.405575e+00	1.325685e+00	1.346180e+00	1.348503e+00	1.364340e+00	1.342678e+00	1.350990e+00	1.350105e+00	1.358286e+00	1.407324e+00	1.345256e+00	1.396252e+00	1.358271e+00	1.349334e+00	1.346792e+00	1.345603e+00	1.342840e+00	1.360402e+00	1.342533e+00	1.352987e+00	1.348879e+00	1.278888e+00	1.269118e+00	1.331285e+00	1.342554e+00	1.283307e+00	1.332179e+00	1.291108e+00	1.345226e+00	1.362789e+00	1.309026e+00	1.321633e+00	1.353956e+00	1.346123e+00	1.364304e+00	1.355054e+00	1.359926e+00	1.299818e+00	1.307769e+00	1.298376e+00	1.281658e+00	1.345888e+00	1.345918e+00	1.273738e+00	1.288056e+00	1.272126e+00	1.357381e+00	1.366046e+00	1.347041e+00	1.348294e+00	1.387564e+00	1.370030e+00	1.368018e+00	1.286547e+00	1.312006e+00	1.409448e+00	1.387856e+00	1.372353e+00	1.391447e+00	1.387713e+00	1.365281e+00	1.370701e+00	1.367129e+00	1.315049e+00	1.343859e+00	1.363117e+00	1.351949e+00	1.326641e+00	1.365628e+00	1.400625e+00	1.342726e+00	1.313911e+00	1.350536e+00	1.303844e+00	1.351457e+00	1.352453e+00	1.362722e+00	1.353537e+00	1.354728e+00	1.356736e+00	1.382434e+00	1.357481e+00	1.359113e+00	1.361993e+00	1.351724e+00	1.347797e+00	1.348140e+00	1.368891e+00	1.342974e+00	1.343115e+00	1.343287e+00	1.386775e+00	1.342566e+00	1.342638e+00	1.342605e+00	1.374632e+00	1.355364e+00	1.356034e+00	1.350432e+00	1.356397e+00	1.344080e+00	1.344798e+00	1.360004e+00	1.360967e+00	1.347119e+00	1.347447e+00	1.354678e+00	1.353098e+00	1.344308e+00	1.344550e+00	1.371220e+00	1.368127e+00	1.401052e+00	1.342539e+00	1.342520e+00	1.347427e+00	1.346585e+00	1.344751e+00	1.344244e+00	1.342990e+00	1.342840e+00	1.343876e+00	1.365028e+00	1.411499e+00	1.270769e+00	1.361312e+00	1.322660e+00	1.320601e+00	1.319536e+00	1.318464e+00	1.358628e+00	1.356200e+00	1.349871e+00	1.317329e+00	1.316225e+00	1.312690e+00	1.348915e+00	1.352885e+00	1.275102e+00	1.273586e+00	1.301150e+00	1.302543e+00	1.289567e+00	1.286482e+00	1.284903e+00	1.339102e+00	1.335679e+00	1.334813e+00	1.338252e+00	1.341680e+00	1.347963e+00	1.344334e+00	1.343446e+00	1.340831e+00	1.339974e+00	1.337398e+00	1.336537e+00	1.333943e+00	1.333065e+00	1.330381e+00	1.329465e+00	1.324692e+00	1.323682e+00	1.328537e+00	1.327593e+00	1.297015e+00	1.295524e+00	1.294111e+00	1.292581e+00	1.270786e+00	1.269637e+00	1.268943e+00	1.349273e+00	1.349686e+00	1.343454e+00	1.343656e+00	1.297665e+00	1.268708e+00	1.280047e+00	1.278377e+00	1.306477e+00	1.305193e+00	1.311507e+00	1.310261e+00	1.351854e+00	1.350850e+00	1.345058e+00	1.345325e+00	1.378371e+00	1.412146e+00	1.343499e+00	1.401598e+00	1.343243e+00	1.344077e+00	1.348936e+00	1.344217e+00	1.354485e+00	1.363069e+00	1.361685e+00	1.355544e+00	1.307153e+00	1.364834e+00	1.372319e+00	1.373640e+00	1.368768e+00	1.381814e+00	1.389047e+00	1.366995e+00	1.358813e+00	1.355078e+00	1.364522e+00	1.325812e+00	1.372855e+00	1.404819e+00	1.346985e+00	1.408060e+00	1.347259e+00	1.393133e+00	1.351832e+00	1.401312e+00	1.343498e+00	1.351368e+00	1.346650e+00	1.366027e+00	1.397425e+00	1.359047e+00	1.322960e+00	1.353411e+00	1.331374e+00	1.366110e+00	1.321913e+00	1.304873e+00	1.309757e+00	1.293424e+00	1.281894e+00	1.373485e+00	1.404755e+00	1.332007e+00	1.282595e+00	1.350601e+00	1.358613e+00	1.360761e+00	1.378646e+00	1.350128e+00	1.343514e+00	1.384870e+00	1.290789e+00	1.342429e+00	1.339011e+00	1.332204e+00	1.360351e+00	1.354460e+00	1.346699e+00	1.345803e+00	1.308539e+00	1.306125e+00	1.301138e+00	1.286845e+00	1.346086e+00	1.346411e+00	1.346773e+00	1.285850e+00	1.291956e+00	1.357842e+00	1.367956e+00	1.297771e+00	1.319122e+00	1.406726e+00	1.390378e+00	1.381003e+00	1.373906e+00	1.373802e+00	1.359438e+00	1.363377e+00	1.326790e+00	1.343402e+00	1.315489e+00	1.350494e+00	1.350931e+00	1.352319e+00	1.352824e+00	1.365359e+00	1.362958e+00	1.353348e+00	1.353908e+00	1.357095e+00	1.357827e+00	1.362295e+00	1.348241e+00	1.348608e+00	1.367120e+00	1.343594e+00	1.343778e+00	1.343313e+00	1.343330e+00	1.377392e+00	1.355718e+00	1.356388e+00	1.352427e+00	1.351301e+00	1.344488e+00	1.344625e+00	1.360329e+00	1.361261e+00	1.347597e+00	1.347892e+00	1.356946e+00	1.355303e+00	1.353867e+00	1.344908e+00	1.345072e+00	1.373999e+00	1.370870e+00	1.367948e+00	1.343389e+00	1.343296e+00	1.343292e+00	1.349188e+00	1.348271e+00	1.347488e+00	1.346165e+00	1.345610e+00	1.343846e+00	1.343643e+00	1.345146e+00	1.279410e+00	1.320848e+00	1.319789e+00	1.356666e+00	1.318753e+00	1.317672e+00	1.316602e+00	1.314381e+00	1.349441e+00	1.280955e+00	1.280076e+00	1.303659e+00	1.302381e+00	1.290670e+00	1.289393e+00	1.288091e+00	1.335643e+00	1.348518e+00	1.347596e+00	1.344932e+00	1.344044e+00	1.343214e+00	1.341540e+00	1.340666e+00	1.339880e+00	1.338198e+00	1.337335e+00	1.336523e+00	1.334832e+00	1.333936e+00	1.333117e+00	1.330433e+00	1.324916e+00	1.323884e+00	1.329591e+00	1.328626e+00	1.327775e+00	1.299837e+00	1.298574e+00	1.297256e+00	1.296038e+00	1.294676e+00	1.278836e+00	1.278914e+00	1.349338e+00	1.349680e+00	1.350078e+00	1.343893e+00	1.344105e+00	1.279411e+00	1.280468e+00	1.285480e+00	1.284270e+00	1.283055e+00	1.307341e+00	1.313235e+00	1.312132e+00	1.310909e+00	1.352398e+00	1.351399e+00	1.350411e+00	1.345370e+00	1.345559e+00	1.345872e+00	1.344720e+00	1.344380e+00	1.401139e+00	1.359003e+00	1.366322e+00	1.359379e+00	1.344839e+00	1.367160e+00	1.370564e+00	1.354859e+00	1.355477e+00	1.379180e+00	1.363271e+00	1.322310e+00	1.402184e+00	1.295341e+00	1.400015e+00	1.354908e+00	1.364763e+00	1.334446e+00	1.331452e+00	1.323780e+00	1.376329e+00	1.376600e+00	1.349373e+00	1.350872e+00	1.386337e+00	1.344042e+00	1.360902e+00	1.344099e+00	1.345012e+00	1.360622e+00	1.326179e+00	1.353866e+00	1.352870e+00	1.339024e+00	1.295884e+00	1.306252e+00	1.363511e+00	1.287427e+00	1.351830e+00	1.369950e+00	1.361941e+00	1.367223e+00	1.359682e+00	1.389762e+00	1.347144e+00	1.402285e+00	1.347479e+00	1.347712e+00	1.393577e+00	1.364602e+00	1.396996e+00	1.342222e+00	1.323251e+00	1.309860e+00	1.349339e+00	1.299951e+00	1.332372e+00	1.346517e+00	1.310827e+00	1.308535e+00	1.307630e+00	1.346601e+00	1.346916e+00	1.358176e+00	1.305888e+00	1.313856e+00	1.403800e+00	1.392639e+00	1.382549e+00	1.358871e+00	1.362439e+00	1.327073e+00	1.350930e+00	1.351359e+00	1.352259e+00	1.352751e+00	1.365192e+00	1.362943e+00	1.353233e+00	1.353766e+00	1.354278e+00	1.357395e+00	1.358111e+00	1.348684e+00	1.349070e+00	1.365888e+00	1.344241e+00	1.344303e+00	1.344033e+00	1.344114e+00	1.356059e+00	1.356694e+00	1.353093e+00	1.351844e+00	1.345089e+00	1.360528e+00	1.361458e+00	1.348079e+00	1.348363e+00	1.357404e+00	1.355760e+00	1.354244e+00	1.345215e+00	1.345480e+00	1.376087e+00	1.372936e+00	1.370120e+00	1.367585e+00	1.344246e+00	1.344268e+00	1.344091e+00	1.344087e+00	1.349751e+00	1.349139e+00	1.348162e+00	1.347691e+00	1.346884e+00	1.344559e+00	1.344600e+00	1.346546e+00	1.321461e+00	1.357056e+00	1.355949e+00	1.320327e+00	1.319456e+00	1.318287e+00	1.317413e+00	1.316200e+00	1.287122e+00	1.286896e+00	1.305368e+00	1.303955e+00	1.294974e+00	1.293803e+00	1.292829e+00	1.291651e+00	1.349140e+00	1.348265e+00	1.347362e+00	1.345632e+00	1.344801e+00	1.343995e+00	1.343081e+00	1.341491e+00	1.340618e+00	1.339774e+00	1.338148e+00	1.337371e+00	1.336499e+00	1.335724e+00	1.334841e+00	1.334060e+00	1.333161e+00	1.324351e+00	1.325147e+00	1.330662e+00	1.329719e+00	1.328913e+00	1.327905e+00	1.303071e+00	1.301597e+00	1.300751e+00	1.299379e+00	1.298264e+00	1.296999e+00	1.286966e+00	1.287274e+00	1.349766e+00	1.350154e+00	1.350541e+00	1.344413e+00	1.344545e+00	1.344756e+00	1.288360e+00	1.289809e+00	1.292066e+00	1.290756e+00	1.289727e+00	1.288906e+00	1.287962e+00	1.315323e+00	1.314121e+00	1.313042e+00	1.312031e+00	1.350077e+00	1.351863e+00	1.350953e+00	1.345634e+00	1.345917e+00	1.346097e+00	1.346396e+00	1.345885e+00	1.345660e+00	1.345137e+00	1.389835e+00	1.365449e+00	1.359042e+00	1.376838e+00	1.392918e+00	1.348016e+00	1.359280e+00	1.395480e+00	1.358451e+00	1.399178e+00	1.380215e+00	1.351592e+00	1.299395e+00	1.307575e+00	1.327669e+00	1.361670e+00	1.375479e+00	1.376427e+00	1.376015e+00	1.398675e+00	1.366415e+00	1.312221e+00	1.359816e+00	1.363545e+00	1.355713e+00	1.349582e+00	1.344700e+00	1.363428e+00	1.349700e+00	1.352394e+00	1.325907e+00	1.324124e+00	1.332034e+00	1.338506e+00	1.323014e+00	1.345391e+00	1.312957e+00	1.362098e+00	1.360924e+00	1.373712e+00	1.359611e+00	1.383706e+00	1.377175e+00	1.374154e+00	1.355146e+00	1.377438e+00	1.397752e+00	1.303300e+00	1.397688e+00	1.354245e+00	1.336469e+00	1.374709e+00	1.374794e+00	1.386637e+00	1.345437e+00	1.345811e+00	1.360793e+00	1.327524e+00	1.353298e+00	1.362487e+00	1.347492e+00	1.348182e+00	1.310991e+00	1.310158e+00	1.308891e+00	1.346985e+00	1.312809e+00	1.319416e+00	1.392918e+00	1.383632e+00	1.351326e+00	1.351727e+00	1.352182e+00	1.352635e+00	1.362905e+00	1.364802e+00	1.353119e+00	1.353580e+00	1.354077e+00	1.354641e+00	1.357614e+00	1.358298e+00	1.348924e+00	1.364643e+00	1.344759e+00	1.344978e+00	1.344794e+00	1.344853e+00	1.356364e+00	1.356923e+00	1.353344e+00	1.352590e+00	1.360658e+00	1.361550e+00	1.348557e+00	1.357433e+00	1.356006e+00	1.355085e+00	1.345717e+00	1.374542e+00	1.371952e+00	1.369195e+00	1.366835e+00	1.345348e+00	1.345070e+00	1.345031e+00	1.344788e+00	1.344962e+00	1.350486e+00	1.349830e+00	1.348953e+00	1.348449e+00	1.347713e+00	1.357337e+00	1.356279e+00	1.355261e+00	1.321876e+00	1.321069e+00	1.320001e+00	1.319175e+00	1.318058e+00	1.293573e+00	1.293875e+00	1.308150e+00	1.306860e+00	1.297770e+00	1.297095e+00	1.296610e+00	1.348836e+00	1.347966e+00	1.347121e+00	1.346278e+00	1.345430e+00	1.344625e+00	1.343779e+00	1.342414e+00	1.341445e+00	1.340040e+00	1.336914e+00	1.335305e+00	1.333676e+00	1.330334e+00	1.328588e+00	1.306098e+00	1.304785e+00	1.304112e+00	1.302767e+00	1.301693e+00	1.301128e+00	1.299803e+00	1.294026e+00	1.294805e+00	1.350194e+00	1.350528e+00	1.350943e+00	1.344947e+00	1.345112e+00	1.295990e+00	1.297821e+00	1.300151e+00	1.295657e+00	1.295092e+00	1.294428e+00	1.293781e+00	1.293751e+00	1.317235e+00	1.316076e+00	1.315073e+00	1.314293e+00	1.351527e+00	1.350529e+00	1.346096e+00	1.346517e+00	1.347332e+00	1.346717e+00	1.346451e+00	1.345985e+00	1.371565e+00	1.370992e+00	1.391292e+00	1.369979e+00	1.376211e+00	1.359870e+00	1.361059e+00	1.347451e+00	1.354540e+00	1.366874e+00	1.361624e+00	1.391867e+00	1.377960e+00	1.388909e+00	1.314689e+00	1.375992e+00	1.318201e+00	1.338239e+00	1.386224e+00	1.359108e+00	1.345793e+00	1.359840e+00	1.346363e+00	1.355914e+00	1.355013e+00	1.346705e+00	1.359148e+00	1.351677e+00	1.394815e+00	1.345424e+00	1.362488e+00	1.360695e+00	1.301650e+00	1.357555e+00	1.349591e+00	1.358962e+00	1.313551e+00	1.358411e+00	1.374203e+00	1.358634e+00	1.379074e+00	1.394250e+00	1.362583e+00	1.348565e+00	1.324576e+00	1.322903e+00	1.362255e+00	1.375124e+00	1.366010e+00	1.385955e+00	1.374580e+00	1.375727e+00	1.394624e+00	1.393323e+00	1.327530e+00	1.380721e+00	1.353713e+00	1.352725e+00	1.325934e+00	1.312861e+00	1.311071e+00	1.348046e+00	1.323887e+00	1.330702e+00	1.383625e+00	1.351827e+00	1.352660e+00	1.364124e+00	1.353540e+00	1.354402e+00	1.357733e+00	1.363562e+00	1.345469e+00	1.356529e+00	1.357096e+00	1.353527e+00	1.360684e+00	1.348985e+00	1.349468e+00	1.357174e+00	1.355058e+00	1.346034e+00	1.373074e+00	1.370363e+00	1.368077e+00	1.366644e+00	1.345932e+00	1.345648e+00	1.345551e+00	1.350035e+00	1.348797e+00	1.356507e+00	1.355548e+00	1.321136e+00	1.319341e+00	1.299625e+00	1.309255e+00	1.301035e+00	1.341069e+00	1.347992e+00	1.346333e+00	1.344738e+00	1.343416e+00	1.342214e+00	1.339602e+00	1.338091e+00	1.336537e+00	1.334971e+00	1.333394e+00	1.331789e+00	1.330130e+00	1.328796e+00	1.307479e+00	1.305553e+00	1.304896e+00	1.303515e+00	1.303023e+00	1.300699e+00	1.301244e+00	1.350113e+00	1.350647e+00	1.351308e+00	1.345570e+00	1.345606e+00	1.302688e+00	1.304449e+00	1.306865e+00	1.309815e+00	1.300510e+00	1.300019e+00	1.299760e+00	1.299264e+00	1.299962e+00	1.299178e+00	1.317408e+00	1.316363e+00	1.351916e+00	1.351059e+00	1.346348e+00	1.347112e+00	1.347566e+00	1.347746e+00	1.346952e+00	1.363559e+00	1.371926e+00	1.370818e+00	1.367782e+00	1.368600e+00	1.361274e+00	1.375162e+00	1.366065e+00	1.389152e+00	1.382896e+00	1.368498e+00	1.364670e+00	1.327534e+00	1.356052e+00	1.389805e+00	1.355780e+00	1.349029e+00	1.317179e+00	1.365130e+00	1.353930e+00	1.378123e+00	1.304805e+00	1.322640e+00	1.387361e+00	1.346147e+00	1.356070e+00	1.347308e+00	1.346417e+00	1.359182e+00	1.359945e+00	1.375604e+00	1.373544e+00	1.373867e+00	1.358893e+00	1.360017e+00	1.353976e+00	1.313958e+00	1.328958e+00	1.348139e+00	1.363600e+00	1.370251e+00	1.371457e+00	1.379275e+00	1.358457e+00	1.354830e+00	1.375343e+00	1.360761e+00	1.347290e+00	1.385178e+00	1.346269e+00	1.390485e+00	1.362354e+00	1.360343e+00	1.357798e+00	1.367933e+00	1.357812e+00	1.361646e+00	1.348600e+00	1.385140e+00	1.374179e+00	1.365240e+00	1.390879e+00	1.390265e+00	1.326229e+00	1.380609e+00	1.353058e+00	1.327643e+00	1.315555e+00	1.330279e+00	1.333290e+00	1.339702e+00	1.352282e+00	1.353077e+00	1.354611e+00	1.355329e+00	1.362655e+00	1.346096e+00	1.356603e+00	1.357186e+00	1.346327e+00	1.350537e+00	1.351128e+00	1.349490e+00	1.358799e+00	1.356838e+00	1.355096e+00	1.371169e+00	1.346940e+00	1.346533e+00	1.353503e+00	1.351734e+00	1.347702e+00	1.356774e+00	1.324752e+00	1.323151e+00	1.305434e+00	1.348761e+00	1.347200e+00	1.341954e+00	1.345661e+00	1.344276e+00	1.343114e+00	1.340718e+00	1.339304e+00	1.337815e+00	1.336312e+00	1.334795e+00	1.333263e+00	1.331703e+00	1.312423e+00	1.310838e+00	1.309392e+00	1.308254e+00	1.306718e+00	1.306110e+00	1.306194e+00	1.307253e+00	1.350004e+00	1.351649e+00	1.346105e+00	1.346144e+00	1.308532e+00	1.310188e+00	1.312528e+00	1.315303e+00	1.318581e+00	1.305023e+00	1.305067e+00	1.304666e+00	1.304649e+00	1.304748e+00	1.321488e+00	1.319791e+00	1.318381e+00	1.351641e+00	1.350338e+00	1.346663e+00	1.346961e+00	1.350317e+00	1.349155e+00	1.348204e+00	1.347496e+00	1.370575e+00	1.369140e+00	1.368176e+00	1.364415e+00	1.347127e+00	1.368443e+00	1.335330e+00	1.356123e+00	1.374094e+00	1.363630e+00	1.363316e+00	1.357796e+00	1.373121e+00	1.355021e+00	1.315497e+00	1.366571e+00	1.367095e+00	1.379766e+00	1.373811e+00	1.326384e+00	1.354927e+00	1.366615e+00	1.354182e+00	1.349482e+00	1.365461e+00	1.366305e+00	1.365744e+00	1.373486e+00	1.385213e+00	1.329178e+00	1.347880