# vtk DataFile Version 3.0
vtk output
ASCII
DATASET UNSTRUCTURED_GRID
POINTS 5233 double
5.332667e-01	-1.937787e-05	0.0	5.328666e-01	-7.747835e-05	0.0	5.322052e-01	-1.734143e-04	0.0	5.312771e-01	-3.077709e-04	0.0	5.300823e-01	-4.802929e-04	0.0	5.286261e-01	-6.898803e-04	0.0	5.269139e-01	-9.353754e-04	0.0	5.249350e-01	-1.217847e-03	0.0	5.227053e-01	-1.534499e-03	0.0	5.202143e-01	-1.886275e-03	0.0	5.174780e-01	-2.270294e-03	0.0	5.144856e-01	-2.687389e-03	0.0	5.112479e-01	-3.135366e-03	0.0	5.077648e-01	-3.613480e-03	0.0	5.040417e-01	-4.120231e-03	0.0	5.000838e-01	-4.654101e-03	0.0	4.958966e-01	-5.213570e-03	0.0	4.914748e-01	-5.798517e-03	0.0	4.868342e-01	-6.405991e-03	0.0	4.819696e-01	-7.035844e-03	0.0	4.768916e-01	-7.685848e-03	0.0	4.716056e-01	-8.354480e-03	0.0	4.661116e-01	-9.040897e-03	0.0	4.604202e-01	-9.742920e-03	0.0	4.545421e-01	-1.045842e-02	0.0	4.484667e-01	-1.118787e-02	0.0	4.422153e-01	-1.192787e-02	0.0	4.357931e-01	-1.267701e-02	0.0	4.291950e-01	-1.343509e-02	0.0	4.224368e-01	-1.419944e-02	0.0	4.155239e-01	-1.496868e-02	0.0	4.084670e-01	-1.574081e-02	0.0	4.012661e-01	-1.651503e-02	0.0	3.939266e-01	-1.728991e-02	0.0	3.864643e-01	-1.806293e-02	0.0	3.788847e-01	-1.883270e-02	0.0	3.711877e-01	-1.959832e-02	0.0	3.633894e-01	-2.035729e-02	0.0	3.554951e-01	-2.110818e-02	0.0	3.475101e-01	-2.184951e-02	0.0	3.394451e-01	-2.257927e-02	0.0	3.313107e-01	-2.329549e-02	0.0	3.231124e-01	-2.399664e-02	0.0	3.148553e-01	-2.468112e-02	0.0	3.065503e-01	-2.534691e-02	0.0	2.982026e-01	-2.599235e-02	0.0	2.898282e-01	-2.661497e-02	0.0	2.814272e-01	-2.721352e-02	0.0	2.730154e-01	-2.778554e-02	0.0	2.645931e-01	-2.832969e-02	0.0	2.561760e-01	-2.884356e-02	0.0	2.477696e-01	-2.932545e-02	0.0	2.393793e-01	-2.977364e-02	0.0	2.310209e-01	-3.018586e-02	0.0	2.226945e-01	-3.056071e-02	0.0	2.144108e-01	-3.089626e-02	0.0	2.061804e-01	-3.119068e-02	0.0	1.980141e-01	-3.144225e-02	0.0	1.899117e-01	-3.164962e-02	0.0	1.818841e-01	-3.181116e-02	0.0	1.739471e-01	-3.192535e-02	0.0	1.661008e-01	-3.199101e-02	0.0	1.583505e-01	-3.200693e-02	0.0	1.507122e-01	-3.197203e-02	0.0	1.431912e-01	-3.188540e-02	0.0	1.357876e-01	-3.174614e-02	0.0	1.285174e-01	-3.155374e-02	0.0	1.213858e-01	-3.130768e-02	0.0	1.143983e-01	-3.100759e-02	0.0	1.075654e-01	-3.065349e-02	0.0	1.008873e-01	-3.024500e-02	0.0	9.437446e-02	-2.978246e-02	0.0	8.803234e-02	-2.926611e-02	0.0	8.187157e-02	-2.869680e-02	0.0	7.589748e-02	-2.807521e-02	0.0	7.011010e-02	-2.740147e-02	0.0	6.451473e-02	-2.667633e-02	0.0	5.912739e-02	-2.590226e-02	0.0	5.394274e-02	-2.507895e-02	0.0	4.897146e-02	-2.420850e-02	0.0	4.421886e-02	-2.329247e-02	0.0	3.968496e-02	-2.233137e-02	0.0	3.538042e-02	-2.132807e-02	0.0	3.130525e-02	-2.028326e-02	0.0	2.746477e-02	-1.919887e-02	0.0	2.386432e-02	-1.807708e-02	0.0	2.050390e-02	-1.691844e-02	0.0	1.738884e-02	-1.572522e-02	0.0	1.452448e-02	-1.450005e-02	0.0	1.190549e-02	-1.324075e-02	0.0	9.547860e-03	-1.195544e-02	0.0	7.440930e-03	-1.063862e-02	0.0	5.595366e-03	-9.296715e-03	0.0	4.011168e-03	-7.930358e-03	0.0	2.688336e-03	-6.539657e-03	0.0	1.626870e-03	-5.123609e-03	0.0	8.321040e-04	-3.689804e-03	0.0	2.987040e-04	-2.225963e-03	0.0	3.200400e-05	-7.336009e-04	0.0	0.000000e+00	0.000000e+00	0.0	3.200400e-05	7.336009e-04	0.0	2.987040e-04	2.225963e-03	0.0	8.321040e-04	3.689804e-03	0.0	1.626870e-03	5.123609e-03	0.0	2.688336e-03	6.539657e-03	0.0	4.011168e-03	7.930358e-03	0.0	5.595366e-03	9.296715e-03	0.0	7.440930e-03	1.063862e-02	0.0	9.547860e-03	1.195544e-02	0.0	1.190549e-02	1.324075e-02	0.0	1.452448e-02	1.450005e-02	0.0	1.738884e-02	1.572522e-02	0.0	2.050390e-02	1.691844e-02	0.0	2.386432e-02	1.807708e-02	0.0	2.746477e-02	1.919887e-02	0.0	3.130525e-02	2.028326e-02	0.0	3.538042e-02	2.132807e-02	0.0	3.968496e-02	2.233137e-02	0.0	4.421886e-02	2.329247e-02	0.0	4.897146e-02	2.420850e-02	0.0	5.394274e-02	2.507895e-02	0.0	5.912739e-02	2.590226e-02	0.0	6.451473e-02	2.667633e-02	0.0	7.011010e-02	2.740147e-02	0.0	7.589748e-02	2.807521e-02	0.0	8.187157e-02	2.869680e-02	0.0	8.803234e-02	2.926611e-02	0.0	9.437446e-02	2.978246e-02	0.0	1.008873e-01	3.024500e-02	0.0	1.075654e-01	3.065349e-02	0.0	1.143983e-01	3.100759e-02	0.0	1.213858e-01	3.130768e-02	0.0	1.285174e-01	3.155374e-02	0.0	1.357876e-01	3.174614e-02	0.0	1.431912e-01	3.188540e-02	0.0	1.507122e-01	3.197203e-02	0.0	1.583505e-01	3.200693e-02	0.0	1.661008e-01	3.199101e-02	0.0	1.739471e-01	3.192535e-02	0.0	1.818841e-01	3.181116e-02	0.0	1.899117e-01	3.164962e-02	0.0	1.980141e-01	3.144225e-02	0.0	2.061804e-01	3.119068e-02	0.0	2.144108e-01	3.089626e-02	0.0	2.226945e-01	3.056071e-02	0.0	2.310209e-01	3.018586e-02	0.0	2.393793e-01	2.977364e-02	0.0	2.477696e-01	2.932545e-02	0.0	2.561760e-01	2.884356e-02	0.0	2.645931e-01	2.832969e-02	0.0	2.730154e-01	2.778554e-02	0.0	2.814272e-01	2.721352e-02	0.0	2.898282e-01	2.661497e-02	0.0	2.982026e-01	2.599235e-02	0.0	3.065503e-01	2.534691e-02	0.0	3.148553e-01	2.468112e-02	0.0	3.231124e-01	2.399664e-02	0.0	3.313107e-01	2.329549e-02	0.0	3.394451e-01	2.257927e-02	0.0	3.475101e-01	2.184951e-02	0.0	3.554951e-01	2.110818e-02	0.0	3.633894e-01	2.035729e-02	0.0	3.711877e-01	1.959832e-02	0.0	3.788847e-01	1.883270e-02	0.0	3.864643e-01	1.806293e-02	0.0	3.939266e-01	1.728991e-02	0.0	4.012661e-01	1.651503e-02	0.0	4.084670e-01	1.574081e-02	0.0	4.155239e-01	1.496868e-02	0.0	4.224368e-01	1.419944e-02	0.0	4.291950e-01	1.343509e-02	0.0	4.357931e-01	1.267701e-02	0.0	4.422153e-01	1.192787e-02	0.0	4.484667e-01	1.118787e-02	0.0	4.545421e-01	1.045842e-02	0.0	4.604202e-01	9.742920e-03	0.0	4.661116e-01	9.040897e-03	0.0	4.716056e-01	8.354480e-03	0.0	4.768916e-01	7.685848e-03	0.0	4.819696e-01	7.035844e-03	0.0	4.868342e-01	6.405991e-03	0.0	4.914748e-01	5.798517e-03	0.0	4.958966e-01	5.213570e-03	0.0	5.000838e-01	4.654101e-03	0.0	5.040417e-01	4.120231e-03	0.0	5.077648e-01	3.613480e-03	0.0	5.112479e-01	3.135366e-03	0.0	5.144856e-01	2.687389e-03	0.0	5.174780e-01	2.270294e-03	0.0	5.202143e-01	1.886275e-03	0.0	5.227053e-01	1.534499e-03	0.0	5.249350e-01	1.217847e-03	0.0	5.269139e-01	9.353754e-04	0.0	5.286261e-01	6.898803e-04	0.0	5.300823e-01	4.802929e-04	0.0	5.312771e-01	3.077709e-04	0.0	5.322052e-01	1.734143e-04	0.0	5.328666e-01	7.747835e-05	0.0	5.332667e-01	1.937787e-05	0.0	5.334000e-01	0.000000e+00	0.0	1.058388e+01	1.337052e+00	0.0	1.033284e+01	2.653025e+00	0.0	9.918855e+00	3.927152e+00	0.0	9.348438e+00	5.139346e+00	0.0	8.630593e+00	6.270496e+00	0.0	7.776636e+00	7.302747e+00	0.0	6.800039e+00	8.219838e+00	0.0	5.716203e+00	9.007291e+00	0.0	4.542216e+00	9.652695e+00	0.0	3.296593e+00	1.014587e+01	0.0	1.998986e+00	1.047904e+01	0.0	6.698491e-01	1.064695e+01	0.0	-6.698491e-01	1.064695e+01	0.0	-1.998986e+00	1.047904e+01	0.0	-3.296593e+00	1.014587e+01	0.0	-4.542216e+00	9.652695e+00	0.0	-5.716203e+00	9.007291e+00	0.0	-6.800039e+00	8.219833e+00	0.0	-7.776636e+00	7.302747e+00	0.0	-8.630593e+00	6.270490e+00	0.0	-9.348438e+00	5.139346e+00	0.0	-9.918855e+00	3.927152e+00	0.0	-1.033284e+01	2.653025e+00	0.0	-1.058388e+01	1.337052e+00	0.0	-1.066800e+01	0.000000e+00	0.0	-1.058388e+01	-1.337058e+00	0.0	-1.033284e+01	-2.653025e+00	0.0	-9.918855e+00	-3.927152e+00	0.0	-9.348438e+00	-5.139352e+00	0.0	-8.630593e+00	-6.270496e+00	0.0	-7.776636e+00	-7.302747e+00	0.0	-6.800039e+00	-8.219838e+00	0.0	-5.716197e+00	-9.007291e+00	0.0	-4.542210e+00	-9.652695e+00	0.0	-3.296593e+00	-1.014587e+01	0.0	-1.998981e+00	-1.047904e+01	0.0	-6.698491e-01	-1.064695e+01	0.0	6.698491e-01	-1.064695e+01	0.0	1.998986e+00	-1.047904e+01	0.0	3.296593e+00	-1.014587e+01	0.0	4.542216e+00	-9.652695e+00	0.0	5.716203e+00	-9.007291e+00	0.0	6.800039e+00	-8.219833e+00	0.0	7.776636e+00	-7.302747e+00	0.0	8.630593e+00	-6.270490e+00	0.0	9.348443e+00	-5.139346e+00	0.0	9.918855e+00	-3.927152e+00	0.0	1.033284e+01	-2.653020e+00	0.0	1.058388e+01	-1.337052e+00	0.0	1.066800e+01	0.000000e+00	0.0	3.238723e-02	-2.453266e-02	0.0	3.521819e-01	-2.879253e-02	0.0	2.271997e-01	3.799500e-02	0.0	3.679870e-01	2.712233e-02	0.0	2.023267e-01	-3.879480e-02	0.0	5.331122e-01	-3.841683e-04	0.0	5.326234e-01	-7.000466e-04	0.0	4.127042e-01	-2.182123e-02	0.0	3.679870e-01	-2.712233e-02	0.0	-7.770406e-04	3.448218e-03	0.0	3.983050e-01	-2.362420e-02	0.0	3.113135e-01	3.262196e-02	0.0	5.295436e-01	-1.908363e-03	0.0	5.279940e-01	-2.373830e-03	0.0	3.196093e-01	3.190221e-02	0.0	3.833827e-01	-2.539339e-02	0.0	-8.521696e-04	4.092242e-04	0.0	5.261817e-01	-2.877582e-03	0.0	5.241119e-01	-3.413214e-03	0.0	-7.770433e-04	-3.448218e-03	0.0	3.441469e-01	-2.960162e-02	0.0	4.396931e-01	-1.818885e-02	0.0	4.265150e-01	-2.000919e-02	0.0	1.860446e-01	3.907736e-02	0.0	4.521692e-01	-1.638556e-02	0.0	1.319768e-01	3.830964e-02	0.0	4.639104e-01	-1.460521e-02	0.0	5.289295e-03	1.165588e-02	0.0	4.748598e-01	-1.286410e-02	0.0	4.107337e-02	-2.696036e-02	0.0	4.849783e-01	-1.117637e-02	0.0	-1.037238e-03	-1.701744e-03	0.0	5.025515e-01	-8.012088e-03	0.0	4.942225e-01	-9.554137e-03	0.0	9.546145e-03	-1.475534e-02	0.0	2.271997e-01	-3.799500e-02	0.0	4.581365e-01	-1.549028e-02	0.0	5.099418e-01	-6.564673e-03	0.0	5.217815e-01	-3.989510e-03	0.0	5.163628e-01	-5.218361e-03	0.0	8.442990e-02	-3.462063e-02	0.0	4.800266e-01	-1.201291e-02	0.0	4.055754e-01	-2.272552e-02	0.0	5.318631e-01	-1.091520e-03	0.0	3.196093e-01	-3.190221e-02	0.0	2.355764e-01	-3.763380e-02	0.0	2.861746e-01	-3.460382e-02	0.0	2.524168e-01	-3.678095e-02	0.0	2.693024e-01	-3.576628e-02	0.0	2.608536e-01	-3.629266e-02	0.0	6.664900e-02	-3.215472e-02	0.0	1.483091e-02	-1.773984e-02	0.0	2.105684e-01	-3.857759e-02	0.0	2.463781e-02	-2.193671e-02	0.0	2.188601e-01	-3.831082e-02	0.0	1.700869e-01	-3.914066e-02	0.0	1.860446e-01	-3.907736e-02	0.0	1.785412e-02	-1.917009e-02	0.0	1.544974e-01	-3.898090e-02	0.0	4.985035e-01	-8.771406e-03	0.0	7.831363e-02	-3.385390e-02	0.0	1.038505e-01	-3.656251e-02	0.0	4.575512e-02	-2.810307e-02	0.0	5.578233e-02	-3.023914e-02	0.0	3.029674e-01	-3.331425e-02	0.0	9.073004e-02	-3.532937e-02	0.0	3.278562e-01	-3.115660e-02	0.0	4.694886e-01	-1.372946e-02	0.0	1.206729e-02	-1.626731e-02	0.0	5.308361e-01	-1.487381e-03	0.0	3.550720e-03	-1.006675e-02	0.0	9.546146e-03	1.475534e-02	0.0	4.897116e-01	-1.035609e-02	0.0	5.0636
[...]
POINT_DATA 5233

SCALARS Density double 1
LOOKUP_TABLE default
1.379287e+00	1.374909e+00	1.371520e+00	1.369062e+00	1.366923e+00	1.365150e+00	1.363549e+00	1.362102e+00	1.360767e+00	1.359530e+00	1.358374e+00	1.357282e+00	1.356248e+00	1.355263e+00	1.354321e+00	1.353418e+00	1.352549e+00	1.351710e+00	1.350900e+00	1.350115e+00	1.349351e+00	1.348610e+00	1.347886e+00	1.347181e+00	1.346491e+00	1.345814e+00	1.345151e+00	1.344499e+00	1.343854e+00	1.343222e+00	1.342592e+00	1.341972e+00	1.341355e+00	1.340742e+00	1.340133e+00	1.339523e+00	1.338916e+00	1.338306e+00	1.337699e+00	1.337086e+00	1.336474e+00	1.335855e+00	1.335237e+00	1.334611e+00	1.333985e+00	1.333349e+00	1.332714e+00	1.332069e+00	1.331426e+00	1.330774e+00	1.330123e+00	1.329468e+00	1.328811e+00	1.328155e+00	1.327497e+00	1.326844e+00	1.326190e+00	1.325542e+00	1.324900e+00	1.324263e+00	1.323642e+00	1.323025e+00	1.322431e+00	1.321842e+00	1.321286e+00	1.320736e+00	1.320226e+00	1.319728e+00	1.319275e+00	1.318840e+00	1.318459e+00	1.318103e+00	1.317810e+00	1.317550e+00	1.317366e+00	1.317229e+00	1.317170e+00	1.317185e+00	1.317295e+00	1.317505e+00	1.317834e+00	1.318301e+00	1.318932e+00	1.319768e+00	1.320837e+00	1.322218e+00	1.323963e+00	1.326172e+00	1.328997e+00	1.332576e+00	1.337137e+00	1.342974e+00	1.350334e+00	1.359558e+00	1.370752e+00	1.383698e+00	1.396373e+00	1.410643e+00	1.415903e+00	1.414987e+00	1.416174e+00	1.411157e+00	1.396969e+00	1.384212e+00	1.371122e+00	1.359808e+00	1.350495e+00	1.343076e+00	1.337206e+00	1.332627e+00	1.329042e+00	1.326215e+00	1.324009e+00	1.322268e+00	1.320891e+00	1.319823e+00	1.318991e+00	1.318358e+00	1.317898e+00	1.317566e+00	1.317363e+00	1.317251e+00	1.317231e+00	1.317296e+00	1.317423e+00	1.317624e+00	1.317868e+00	1.318176e+00	1.318515e+00	1.318914e+00	1.319334e+00	1.319805e+00	1.320291e+00	1.320818e+00	1.321357e+00	1.321926e+00	1.322507e+00	1.323109e+00	1.323723e+00	1.324347e+00	1.324985e+00	1.325623e+00	1.326275e+00	1.326923e+00	1.327583e+00	1.328236e+00	1.328897e+00	1.329551e+00	1.330208e+00	1.330859e+00	1.331510e+00	1.332156e+00	1.332800e+00	1.333436e+00	1.334068e+00	1.334697e+00	1.335319e+00	1.335941e+00	1.336555e+00	1.337171e+00	1.337780e+00	1.338391e+00	1.338997e+00	1.339607e+00	1.340214e+00	1.340825e+00	1.341437e+00	1.342054e+00	1.342674e+00	1.343304e+00	1.343936e+00	1.344580e+00	1.345233e+00	1.345896e+00	1.346573e+00	1.347263e+00	1.347967e+00	1.348691e+00	1.349431e+00	1.350195e+00	1.350980e+00	1.351791e+00	1.352630e+00	1.353499e+00	1.354402e+00	1.355345e+00	1.356331e+00	1.357367e+00	1.358460e+00	1.359618e+00	1.360857e+00	1.362194e+00	1.363644e+00	1.365249e+00	1.367026e+00	1.369170e+00	1.371641e+00	1.375031e+00	1.379488e+00	1.365768e+00	1.347041e+00	1.347041e+00	1.347040e+00	1.347039e+00	1.347037e+00	1.347035e+00	1.347033e+00	1.347031e+00	1.347029e+00	1.347028e+00	1.347027e+00	1.347027e+00	1.347027e+00	1.347029e+00	1.347031e+00	1.347034e+00	1.347036e+00	1.347038e+00	1.347041e+00	1.347043e+00	1.347044e+00	1.347046e+00	1.347047e+00	1.347047e+00	1.347047e+00	1.347047e+00	1.347047e+00	1.347046e+00	1.347045e+00	1.347043e+00	1.347042e+00	1.347039e+00	1.347037e+00	1.347034e+00	1.347032e+00	1.347030e+00	1.347029e+00	1.347028e+00	1.347027e+00	1.347029e+00	1.347030e+00	1.347032e+00	1.347034e+00	1.347036e+00	1.347038e+00	1.347039e+00	1.347041e+00	1.347041e+00	1.347040e+00	1.347040e+00	1.323246e+00	1.337706e+00	1.328534e+00	1.338949e+00	1.326643e+00	1.375151e+00	1.372977e+00	1.342513e+00	1.338900e+00	1.404811e+00	1.341296e+00	1.334740e+00	1.365971e+00	1.364319e+00	1.335344e+00	1.340096e+00	1.414382e+00	1.362789e+00	1.361433e+00	1.404347e+00	1.337100e+00	1.345021e+00	1.343751e+00	1.325506e+00	1.346335e+00	1.321815e+00	1.347701e+00	1.355148e+00	1.349132e+00	1.321365e+00	1.350643e+00	1.413168e+00	1.353965e+00	1.352246e+00	1.342245e+00	1.328487e+00	1.347012e+00	1.355828e+00	1.360163e+00	1.357874e+00	1.319602e+00	1.349877e+00	1.341903e+00	1.370059e+00	1.335299e+00	1.329109e+00	1.332851e+00	1.330358e+00	1.331609e+00	1.330978e+00	1.319498e+00	1.333769e+00	1.327256e+00	1.326181e+00	1.327866e+00	1.324310e+00	1.325453e+00	1.330689e+00	1.323227e+00	1.353089e+00	1.319481e+00	1.320250e+00	1.320728e+00	1.319880e+00	1.334081e+00	1.319754e+00	1.335896e+00	1.348409e+00	1.337561e+00	1.367894e+00	1.363296e+00	1.342335e+00	1.351431e+00	1.354876e+00	1.358982e+00	1.395268e+00	1.345672e+00	1.321759e+00	1.333458e+00	1.340691e+00	1.343134e+00	1.319651e+00	1.320928e+00	1.334683e+00	1.338298e+00	1.324563e+00	1.373002e+00	1.347978e+00	1.326047e+00	1.319988e+00	1.385818e+00	1.321337e+00	1.320235e+00	1.323753e+00	1.322229e+00	1.329728e+00	1.339493e+00	1.413523e+00	1.394798e+00	1.332900e+00	1.414287e+00	1.333826e+00	1.324598e+00	1.328239e+00	1.319681e+00	1.327921e+00	1.370166e+00	1.332279e+00	1.330408e+00	1.359058e+00	1.356896e+00	1.349192e+00	1.331031e+00	1.329161e+00	1.326699e+00	1.352310e+00	1.350703e+00	1.321406e+00	1.360242e+00	1.355898e+00	1.354032e+00	1.320274e+00	1.323284e+00	1.323271e+00	1.322268e+00	1.319811e+00	1.324358e+00	1.329779e+00	1.327301e+00	1.319537e+00	1.319548e+00	1.336551e+00	1.320307e+00	1.320985e+00	1.337753e+00	1.334127e+00	1.341350e+00	1.340146e+00	1.343808e+00	1.342568e+00	1.346396e+00	1.345084e+00	1.349938e+00	1.347759e+00	1.354945e+00	1.351494e+00	1.357948e+00	1.347070e+00	1.348469e+00	1.344443e+00	1.345734e+00	1.341961e+00	1.343189e+00	1.339553e+00	1.340751e+00	1.337160e+00	1.338357e+00	1.333512e+00	1.335957e+00	1.320614e+00	1.321375e+00	1.319627e+00	1.320021e+00	1.326220e+00	1.319492e+00	1.348102e+00	1.330737e+00	1.320579e+00	1.373312e+00	1.356824e+00	1.344384e+00	1.324873e+00	1.332224e+00	1.384137e+00	1.337632e+00	1.363529e+00	1.320755e+00	1.322228e+00	1.322762e+00	1.319915e+00	1.361515e+00	1.362875e+00	1.323804e+00	1.364409e+00	1.366066e+00	1.324918e+00	1.326090e+00	1.353156e+00	1.386037e+00	1.373096e+00	1.375283e+00	1.336506e+00	1.328196e+00	1.367995e+00	1.331658e+00	1.383725e+00	1.354980e+00	1.322197e+00	1.319467e+00	1.322708e+00	1.325076e+00	1.399368e+00	1.408286e+00	1.324240e+00	1.339524e+00	1.351191e+00	1.363544e+00	1.334878e+00	1.338936e+00	1.343082e+00	1.363278e+00	1.325657e+00	1.346905e+00	1.345597e+00	1.323373e+00	1.398850e+00	1.322336e+00	1.350171e+00	1.356352e+00	1.321627e+00	1.340106e+00	1.337770e+00	1.330148e+00	1.324136e+00	1.327835e+00	1.349694e+00	1.343689e+00	1.363772e+00	1.344999e+00	1.338378e+00	1.346259e+00	1.322358e+00	1.338962e+00	1.321659e+00	1.348305e+00	1.363358e+00	1.326208e+00	1.332501e+00	1.355460e+00	1.349007e+00	1.364771e+00	1.356409e+00	1.360734e+00	1.323043e+00	1.325687e+00	1.322659e+00	1.322784e+00	1.338354e+00	1.322127e+00	1.356448e+00	1.321675e+00	1.329360e+00	1.358451e+00	1.366404e+00	1.349734e+00	1.321616e+00	1.387539e+00	1.370213e+00	1.368286e+00	1.372054e+00	1.390882e+00	1.371759e+00	1.412651e+00	1.412545e+00	1.344897e+00	1.387491e+00	1.326199e+00	1.370108e+00	1.366313e+00	1.328983e+00	1.333663e+00	1.361923e+00	1.348268e+00	1.335450e+00	1.364685e+00	1.407907e+00	1.329555e+00	1.328434e+00	1.346242e+00	1.324221e+00	1.347576e+00	1.348968e+00	1.325060e+00	1.350428e+00	1.351981e+00	1.354497e+00	1.336932e+00	1.355405e+00	1.357348e+00	1.360663e+00	1.321797e+00	1.341888e+00	1.342480e+00	1.368188e+00	1.330732e+00	1.331317e+00	1.331903e+00	1.340576e+00	1.328397e+00	1.328980e+00	1.326202e+00	1.331402e+00	1.352790e+00	1.353630e+00	1.321636e+00	1.322802e+00	1.334255e+00	1.336016e+00	1.358388e+00	1.359496e+00	1.340694e+00	1.341290e+00	1.322357e+00	1.322007e+00	1.334842e+00	1.335431e+00	1.329341e+00	1.327637e+00	1.356271e+00	1.326724e+00	1.327279e+00	1.321766e+00	1.321866e+00	1.322685e+00	1.322980e+00	1.324664e+00	1.325184e+00	1.323400e+00	1.412831e+00	1.380773e+00	1.331427e+00	1.361998e+00	1.333086e+00	1.331927e+00	1.331333e+00	1.330764e+00	1.359564e+00	1.357409e+00	1.352024e+00	1.330151e+00	1.329590e+00	1.327838e+00	1.351242e+00	1.354545e+00	1.326202e+00	1.327649e+00	1.323378e+00	1.323819e+00	1.321605e+00	1.321788e+00	1.322027e+00	1.343721e+00	1.341313e+00	1.340722e+00	1.343111e+00	1.345606e+00	1.350472e+00	1.347614e+00	1.346937e+00	1.344979e+00	1.344349e+00	1.342509e+00	1.341907e+00	1.340133e+00	1.339548e+00	1.337794e+00	1.337210e+00	1.334273e+00	1.333687e+00	1.336625e+00	1.336039e+00	1.322404e+00	1.322102e+00	1.321929e+00	1.321735e+00	1.350300e+00	1.333935e+00	1.336988e+00	1.344319e+00	1.344958e+00	1.332479e+00	1.333073e+00	1.381155e+00	1.340648e+00	1.323398e+00	1.324123e+00	1.325179e+00	1.324709e+00	1.327299e+00	1.326733e+00	1.353674e+00	1.352834e+00	1.336602e+00	1.337186e+00	1.333895e+00	1.390461e+00	1.323763e+00	1.401451e+00	1.329007e+00	1.325731e+00	1.343686e+00	1.333963e+00	1.351660e+00	1.363589e+00	1.362314e+00	1.356820e+00	1.378214e+00	1.365235e+00	1.372458e+00	1.373660e+00	1.368096e+00	1.381668e+00	1.347195e+00	1.406701e+00	1.326022e+00	1.352425e+00	1.363513e+00	1.335099e+00	1.372335e+00	1.370601e+00	1.340234e+00	1.386274e+00	1.340773e+00	1.351856e+00	1.348068e+00	1.363553e+00	1.327046e+00	1.347406e+00	1.339629e+00	1.365155e+00	1.357337e+00	1.359919e+00	1.333459e+00	1.354984e+00	1.338542e+00	1.366433e+00	1.332863e+00	1.325332e+00	1.327046e+00	1.323810e+00	1.329015e+00	1.373510e+00	1.392262e+00	1.392664e+00	1.351948e+00	1.401625e+00	1.356776e+00	1.326785e+00	1.411957e+00	1.323704e+00	1.331185e+00	1.343151e+00	1.363714e+00	1.346194e+00	1.343698e+00	1.339057e+00	1.361097e+00	1.355882e+00	1.349473e+00	1.348770e+00	1.326556e+00	1.325729e+00	1.324400e+00	1.325354e+00	1.338493e+00	1.339105e+00	1.323947e+00	1.357449e+00	1.323812e+00	1.358842e+00	1.368194e+00	1.370801e+00	1.386554e+00	1.377952e+00	1.406340e+00	1.339712e+00	1.373545e+00	1.373416e+00	1.357751e+00	1.362244e+00	1.335681e+00	1.330621e+00	1.329540e+00	1.346121e+00	1.346764e+00	1.348752e+00	1.349450e+00	1.329016e+00	1.327829e+00	1.350158e+00	1.350906e+00	1.354946e+00	1.355835e+00	1.361032e+00	1.342517e+00	1.343129e+00	1.366342e+00	1.331711e+00	1.332316e+00	1.329582e+00	1.330083e+00	1.336774e+00	1.353237e+00	1.354075e+00	1.323990e+00	1.323916e+00	1.334604e+00	1.335101e+00	1.358788e+00	1.359859e+00	1.341377e+00	1.341910e+00	1.325308e+00	1.324767e+00	1.324391e+00	1.335731e+00	1.336231e+00	1.334384e+00	1.332286e+00	1.330505e+00	1.327516e+00	1.327991e+00	1.328524e+00	1.323714e+00	1.323715e+00	1.323824e+00	1.324168e+00	1.324392e+00	1.326159e+00	1.326580e+00	1.324697e+00	1.334385e+00	1.332285e+00	1.331708e+00	1.357802e+00	1.331169e+00	1.330612e+00	1.330082e+00	1.329024e+00	1.351674e+00	1.330500e+00	1.332277e+00	1.325000e+00	1.324665e+00	1.324064e+00	1.324351e+00	1.324766e+00	1.341346e+00	1.350925e+00	1.350185e+00	1.348095e+00	1.347413e+00	1.346781e+00	1.345537e+00	1.344893e+00	1.344326e+00	1.343130e+00	1.342512e+00	1.341964e+00	1.340813e+00	1.340196e+00	1.339673e+00	1.337921e+00	1.334581e+00	1.333969e+00	1.337413e+00	1.336787e+00	1.336287e+00	1.324145e+00	1.323971e+00	1.323794e+00	1.323769e+00	1.323681e+00	1.336780e+00	1.339730e+00	1.344322e+00	1.344876e+00	1.345484e+00	1.332867e+00	1.333476e+00	1.343192e+00	1.347247e+00	1.325962e+00	1.326806e+00	1.327803e+00	1.326138e+00	1.328490e+00	1.328031e+00	1.327481e+00	1.354126e+00	1.353288e+00	1.352469e+00	1.336854e+00	1.337361e+00	1.337978e+00	1.324995e+00	1.325362e+00	1.395670e+00	1.328362e+00	1.366592e+00	1.360182e+00	1.334922e+00	1.402093e+00	1.369999e+00	1.352150e+00	1.352946e+00	1.341699e+00	1.363731e+00	1.333305e+00	1.387575e+00	1.357605e+00	1.368746e+00	1.356246e+00	1.365131e+00	1.387912e+00	1.338681e+00	1.382271e+00	1.376378e+00	1.376223e+00	1.344304e+00	1.325980e+00	1.348655e+00	1.330341e+00	1.329285e+00	1.331787e+00	1.327500e+00	1.361303e+00	1.335521e+00	1.355353e+00	1.354509e+00	1.343764e+00	1.325928e+00	1.326607e+00	1.362443e+00	1.332917e+00	1.348029e+00	1.370103e+00	1.362509e+00	1.366501e+00	1.358074e+00	1.352718e+00	1.340343e+00	1.375143e+00	1.340955e+00	1.341437e+00	1.357530e+00	1.363657e+00	1.362927e+00	1.346068e+00	1.333840e+00	1.327812e+00	1.395775e+00	1.363019e+00	1.339285e+00	1.349342e+00	1.328074e+00	1.327265e+00	1.327132e+00	1.339246e+00	1.339848e+00	1.359106e+00	1.368882e+00	1.375319e+00	1.382074e+00	1.401199e+00	1.344925e+00	1.357116e+00	1.361244e+00	1.335994e+00	1.346714e+00	1.347350e+00	1.348646e+00	1.349327e+00	1.331479e+00	1.330314e+00	1.349994e+00	1.350712e+00	1.351392e+00	1.355338e+00	1.356207e+00	1.343130e+00	1.343773e+00	1.365050e+00	1.332379e+00	1.332842e+00	1.330819e+00	1.331388e+00	1.353682e+00	1.354476e+00	1.326269e+00	1.325981e+00	1.335538e+00	1.359060e+00	1.360129e+00	1.342040e+00	1.342603e+00	1.327766e+00	1.327139e+00	1.326617e+00	1.335997e+00	1.336606e+00	1.339139e+00	1.336691e+00	1.334662e+00	1.332941e+00	1.328466e+00	1.329060e+00	1.329391e+00	1.329921e+00	1.325616e+00	1.325917e+00	1.325681e+00	1.326050e+00	1.325936e+00	1.328242e+00	1.327662e+00	1.326380e+00	1.332902e+00	1.358116e+00	1.357148e+00	1.332267e+00	1.331877e+00	1.331240e+00	1.330888e+00	1.330249e+00	1.334668e+00	1.336678e+00	1.326565e+00	1.326108e+00	1.326282e+00	1.326626e+00	1.327176e+00	1.327630e+00	1.351425e+00	1.350724e+00	1.350002e+00	1.348647e+00	1.348016e+00	1.347393e+00	1.346721e+00	1.345524e+00	1.344911e+00	1.344282e+00	1.343138e+00	1.342609e+00	1.342000e+00	1.341487e+00	1.340882e+00	1.340379e+00	1.339777e+00	1.334470e+00	1.334867e+00	1.338202e+00	1.337597e+00	1.337131e+00	1.336510e+00	1.326149e+00	1.325719e+00	1.325865e+00	1.325683e+00	1.325780e+00	1.325796e+00	1.339134e+00	1.341697e+00	1.344898e+00	1.345535e+00	1.346124e+00	1.333360e+00	1.333861e+00	1.334487e+00	1.344922e+00	1.348687e+00	1.352747e+00	1.328434e+00	1.329223e+00	1.330313e+00	1.331451e+00	1.329926e+00	1.329370e+00	1.328936e+00	1.328561e+00	1.352188e+00	1.353664e+00	1.352909e+00	1.337074e+00	1.337679e+00	1.338156e+00	1.338759e+00	1.326375e+00	1.326870e+00	1.326951e+00	1.357559e+00	1.365742e+00	1.357372e+00	1.376904e+00	1.362259e+00	1.341784e+00	1.330822e+00	1.367214e+00	1.359307e+00	1.378441e+00	1.346260e+00	1.328129e+00	1.328795e+00	1.362315e+00	1.378565e+00	1.394971e+00	1.404271e+00	1.403932e+00	1.403427e+00	1.383366e+00	1.365660e+00	1.329340e+00	1.358286e+00	1.362541e+00	1.353277e+00	1.344529e+00	1.331544e+00	1.363830e+00	1.351870e+00	1.354082e+00	1.335538e+00	1.334535e+00	1.339169e+00	1.343446e+00	1.334006e+00	1.335604e+00	1.329458e+00	1.362604e+00	1.331489e+00	1.373811e+00	1.360343e+00	1.403872e+00	1.376765e+00	1.373682e+00	1.352542e+00	1.343552e+00	1.389689e+00	1.357568e+00	1.372593e+00	1.355644e+00	1.383536e+00	1.374602e+00	1.374553e+00	1.353385e+00	1.329223e+00	1.329067e+00	1.361412e+00	1.336465e+00	1.354844e+00	1.361357e+00	1.340765e+00	1.389696e+00	1.328876e+00	1.328741e+00	1.328298e+00	1.339714e+00	1.367282e+00	1.372697e+00	1.394507e+00	1.349812e+00	1.347278e+00	1.347852e+00	1.348515e+00	1.349160e+00	1.332650e+00	1.333684e+00	1.349834e+00	1.350466e+00	1.351135e+00	1.351891e+00	1.355650e+00	1.356482e+00	1.343429e+00	1.363757e+00	1.332903e+00	1.333523e+00	1.332046e+00	1.332596e+00	1.354099e+00	1.354800e+00	1.328194e+00	1.328189e+00	1.359268e+00	1.360295e+00	1.342764e+00	1.329800e+00	1.329149e+00	1.329227e+00	1.336626e+00	1.340956e+00	1.338918e+00	1.336813e+00	1.335170e+00	1.329718e+00	1.329936e+00	1.330451e+00	1.330660e+00	1.331334e+00	1.327709e+00	1.327870e+00	1.327645e+00	1.327916e+00	1.327813e+00	1.358322e+00	1.357396e+00	1.356515e+00	1.333361e+00	1.333004e+00	1.332446e+00	1.332103e+00	1.331540e+00	1.336778e+00	1.338922e+00	1.328288e+00	1.327909e+00	1.328604e+00	1.329106e+00	1.330027e+00	1.351172e+00	1.350480e+00	1.349813e+00	1.349157e+00	1.348505e+00	1.347888e+00	1.347249e+00	1.346237e+00	1.345534e+00	1.344522e+00	1.342354e+00	1.341277e+00	1.340215e+00	1.338125e+00	1.337065e+00	1.327957e+00	1.327652e+00	1.327877e+00	1.327691e+00	1.327594e+00	1.328082e+00	1.327944e+00	1.340975e+00	1.343549e+00	1.345530e+00	1.346056e+00	1.346667e+00	1.333935e+00	1.334579e+00	1.346278e+00	1.349784e+00	1.353422e+00	1.330640e+00	1.331584e+00	1.332618e+00	1.333706e+00	1.335178e+00	1.331251e+00	1.330727e+00	1.330253e+00	1.330125e+00	1.353363e+00	1.352544e+00	1.337646e+00	1.338673e+00	1.328146e+00	1.328127e+00	1.328525e+00	1.328613e+00	1.371027e+00	1.371135e+00	1.365624e+00	1.396448e+00	1.375877e+00	1.358426e+00	1.361594e+00	1.384675e+00	1.355850e+00	1.366171e+00	1.360450e+00	1.389590e+00	1.347391e+00	1.361309e+00	1.330802e+00	1.375983e+00	1.365665e+00	1.379628e+00	1.357277e+00	1.357522e+00	1.335809e+00	1.360494e+00	1.330572e+00	1.353590e+00	1.352414e+00	1.338672e+00	1.332819e+00	1.329827e+00	1.379538e+00	1.332919e+00	1.334840e+00	1.333607e+00	1.331057e+00	1.358457e+00	1.351755e+00	1.389789e+00	1.361316e+00	1.356686e+00	1.374277e+00	1.359411e+00	1.404331e+00	1.384480e+00	1.361539e+00	1.342632e+00	1.335066e+00	1.334205e+00	1.362693e+00	1.374947e+00	1.366258e+00	1.397179e+00	1.374145e+00	1.344898e+00	1.375037e+00	1.370253e+00	1.336658e+00	1.350299e+00	1.355152e+00	1.354320e+00	1.335768e+00	1.330270e+00	1.329876e+00	1.341645e+00	1.370302e+00	1.375131e+00	1.353814e+00	1.347992e+00	1.349199e+00	1.335691e+00	1.350439e+00	1.351606e+00	1.355862e+00	1.362628e+00	1.333781e+00	1.354363e+00	1.355076e+00	1.330187e+00	1.359375e+00	1.343410e+00	1.344252e+00	1.331638e+00	1.330949e+00	1.336741e+00	1.342739e+00	1.340283e+00	1.338435e+00	1.337738e+00	1.331158e+00	1.331806e+00	1.332514e+00	1.329551e+00	1.329573e+00	1.357543e+00	1.356714e+00	1.333348e+00	1.332568e+00	1.340232e+00	1.329597e+00	1.331939e+00	1.345291e+00	1.350486e+00	1.349194e+00	1.347978e+00	1.346996e+00	1.346109e+00	1.344251e+00	1.343211e+00	1.342166e+00	1.341140e+00	1.340133e+00	1.339139e+00	1.338144e+00	1.337361e+00	1.329558e+00	1.329486e+00	1.330116e+00	1.329965e+00	1.330440e+00	1.342739e+00	1.344907e+00	1.345329e+00	1.346194e+00	1.347209e+00	1.334575e+00	1.335026e+00	1.347387e+00	1.350383e+00	1.353776e+00	1.357320e+00	1.332777e+00	1.333648e+00	1.334749e+00	1.335644e+00	1.337626e+00	1.338493e+00	1.331732e+00	1.331415e+00	1.353655e+00	1.352941e+00	1.337708e+00	1.339654e+00	1.340657e+00	1.329748e+00	1.330076e+00	1.363906e+00	1.371442e+00	1.370279e+00	1.367965e+00	1.341287e+00	1.361740e+00	1.375127e+00	1.365323e+00	1.368110e+00	1.357046e+00	1.367876e+00	1.363840e+00	1.368132e+00	1.384682e+00	1.384877e+00	1.356851e+00	1.343359e+00	1.332318e+00	1.365406e+00	1.351022e+00	1.350893e+00	1.341140e+00	1.364182e+00	1.364175e+00	1.333676e+00	1.353859e+00	1.339714e+00	1.336996e+00	1.357695e+00	1.358588e+00	1.348162e+00	1.346173e+00	1.373904e+00	1.359582e+00	1.360595e+00	1.355317e+00	1.331466e+00	1.337645e+00	1.341608e+00	1.337501e+00	1.370384e+00	1.371549e+00	1.398916e+00	1.356830e+00	1.356039e+00	1.375025e+00	1.359545e+00	1.380369e+00	1.360385e+00	1.336194e+00	1.380171e+00	1.337003e+00	1.335449e+00	1.358616e+00	1.392037e+00	1.356041e+00	1.360549e+00	1.342542e+00	1.391301e+00	1.373782e+00	1.338813e+00	1.376090e+00	1.372095e+00	1.336178e+00	1.353782e+00	1.354542e+00	1.336919e+00	1.331820e+00	1.338395e+00	1.372133e+00	1.376121e+00	1.348674e+00	1.349830e+00	1.351944e+00	1.352899e+00	1.361683e+00	1.334255e+00	1.354535e+00	1.355269e+00	1.333230e+00	1.345984e+00	1.346919e+00	1.344191e+00	1.334513e+00	1.333514e+00	1.332592e+00	1.343686e+00	1.332100e+00	1.332596e+00	1.332018e+00	1.331507e+00	1.340655e+00	1.357714e+00	1.335433e+00	1.334648e+00	1.333735e+00	1.351059e+00	1.349843e+00	1.345941e+00	1.348668e+00	1.347629e+00	1.346779e+00	1.345066e+00	1.344088e+00	1.343080e+00	1.342091e+00	1.341118e+00	1.340165e+00	1.339223e+00	1.331271e+00	1.331222e+00	1.331346e+00	1.331699e+00	1.332003e+00	1.332899e+00	1.343796e+00	1.346120e+00	1.345091e+00	1.347730e+00	1.334994e+00	1.335544e+00	1.348264e+00	1.350761e+00	1.353908e+00	1.357015e+00	1.360424e+00	1.334601e+00	1.335642e+00	1.336552e+00	1.337736e+00	1.338930e+00	1.333911e+00	1.333223e+00	1.332685e+00	1.353378e+00	1.352319e+00	1.337879e+00	1.338795e+00	1.331263e+00	1.331238e+00	1.331369e+00	1.331660e+00	1.370680e+00	1.368528e+00	1.367485e+00	1.364740e+00	1.376608e+00	1.368626e+00	1.369482e+00	1.354021e+00	1.373702e+00	1.362757e+00	1.362445e+00	1.356124e+00	1.373175e+00	1.356131e+00	1.332883e+00	1.365886e+00	1.366429e+00	1.356529e+00	1.373839e+00	1.362851e+00	1.334282e+00	1.342186e+00	1.351439e+00	1.344072e+00	1.364662e+00	1.366520e+00	1.365970e+00	1.373059e+00	1.366146e+00	1.337981e+00	1.340675